 103 103   0   0
  0.4600984E+02  0.1553239E-08  0.1553239E-08  0.2268197E-08  0.5000000E-15
  1.000000000000000E-004
  CAR 
 unknown system                          
      2.73423731    -52.14022477  301     -1.95029077      1.00000000
    -52.140  0.0000E+00  0.0000E+00  0.0000E+00  0.0000E+00
    -51.957  0.0000E+00  0.0000E+00  0.0000E+00  0.0000E+00
    -51.774  0.0000E+00  0.0000E+00  0.0000E+00  0.0000E+00
    -51.591  0.0000E+00  0.0000E+00  0.0000E+00  0.0000E+00
    -51.409  0.0000E+00  0.0000E+00  0.0000E+00  0.0000E+00
    -51.226  0.0000E+00  0.0000E+00  0.0000E+00  0.0000E+00
    -51.043  0.0000E+00  0.0000E+00  0.0000E+00  0.0000E+00
    -50.860  0.0000E+00  0.0000E+00  0.0000E+00  0.0000E+00
    -50.677  0.0000E+00  0.0000E+00  0.0000E+00  0.0000E+00
    -50.494  0.0000E+00  0.0000E+00  0.0000E+00  0.0000E+00
    -50.311  0.0000E+00  0.0000E+00  0.0000E+00  0.0000E+00
    -50.128  0.0000E+00  0.0000E+00  0.0000E+00  0.0000E+00
    -49.945  0.0000E+00  0.0000E+00  0.0000E+00  0.0000E+00
    -49.762  0.2716E-02  0.4192E-05  0.4969E-03  0.7667E-06
    -49.579  0.5300E+01  0.3516E+01  0.9700E+00  0.6431E+00
    -49.397  0.4620E+00  0.1951E+01  0.1055E+01  0.1000E+01
    -49.214  0.5176E+01  0.2155E+00  0.2001E+01  0.1039E+01
    -49.031  0.5387E+01  0.5601E+01  0.2987E+01  0.2064E+01
    -48.848  0.8304E+00  0.5117E+01  0.3139E+01  0.3000E+01
    -48.665  0.1009E+02  0.4759E+01  0.4985E+01  0.3870E+01
    -48.482  0.9718E+01  0.7660E+01  0.6762E+01  0.5272E+01
    -48.299  0.1438E+01  0.4011E+01  0.7025E+01  0.6005E+01
    -48.116  0.7152E+01  0.9705E+01  0.8334E+01  0.7780E+01
    -47.933  0.7812E+01  0.2035E+01  0.9763E+01  0.8153E+01
    -47.750  0.9802E+01  0.8984E+01  0.1156E+02  0.9796E+01
    -47.567  0.2431E+01  0.1148E+02  0.1200E+02  0.1190E+02
    -47.384  0.2621E-06  0.5655E+00  0.1200E+02  0.1200E+02
    -47.202  0.0000E+00  0.0000E+00  0.1200E+02  0.1200E+02
    -47.019  0.0000E+00  0.0000E+00  0.1200E+02  0.1200E+02
    -46.836  0.0000E+00  0.0000E+00  0.1200E+02  0.1200E+02
    -46.653  0.0000E+00  0.0000E+00  0.1200E+02  0.1200E+02
    -46.470  0.0000E+00  0.0000E+00  0.1200E+02  0.1200E+02
    -46.287  0.0000E+00  0.0000E+00  0.1200E+02  0.1200E+02
    -46.104  0.0000E+00  0.0000E+00  0.1200E+02  0.1200E+02
    -45.921  0.0000E+00  0.0000E+00  0.1200E+02  0.1200E+02
    -45.738  0.0000E+00  0.0000E+00  0.1200E+02  0.1200E+02
    -45.555  0.0000E+00  0.0000E+00  0.1200E+02  0.1200E+02
    -45.372  0.0000E+00  0.0000E+00  0.1200E+02  0.1200E+02
    -45.189  0.0000E+00  0.0000E+00  0.1200E+02  0.1200E+02
    -45.007  0.0000E+00  0.0000E+00  0.1200E+02  0.1200E+02
    -44.824  0.0000E+00  0.0000E+00  0.1200E+02  0.1200E+02
    -44.641  0.0000E+00  0.0000E+00  0.1200E+02  0.1200E+02
    -44.458  0.0000E+00  0.0000E+00  0.1200E+02  0.1200E+02
    -44.275  0.0000E+00  0.0000E+00  0.1200E+02  0.1200E+02
    -44.092  0.0000E+00  0.0000E+00  0.1200E+02  0.1200E+02
    -43.909  0.0000E+00  0.0000E+00  0.1200E+02  0.1200E+02
    -43.726  0.0000E+00  0.0000E+00  0.1200E+02  0.1200E+02
    -43.543  0.0000E+00  0.0000E+00  0.1200E+02  0.1200E+02
    -43.360  0.0000E+00  0.0000E+00  0.1200E+02  0.1200E+02
    -43.177  0.0000E+00  0.0000E+00  0.1200E+02  0.1200E+02
    -42.994  0.0000E+00  0.0000E+00  0.1200E+02  0.1200E+02
    -42.812  0.0000E+00  0.0000E+00  0.1200E+02  0.1200E+02
    -42.629  0.0000E+00  0.0000E+00  0.1200E+02  0.1200E+02
    -42.446  0.0000E+00  0.0000E+00  0.1200E+02  0.1200E+02
    -42.263  0.0000E+00  0.0000E+00  0.1200E+02  0.1200E+02
    -42.080  0.0000E+00  0.0000E+00  0.1200E+02  0.1200E+02
    -41.897  0.0000E+00  0.0000E+00  0.1200E+02  0.1200E+02
    -41.714  0.0000E+00  0.0000E+00  0.1200E+02  0.1200E+02
    -41.531  0.0000E+00  0.0000E+00  0.1200E+02  0.1200E+02
    -41.348  0.0000E+00  0.0000E+00  0.1200E+02  0.1200E+02
    -41.165  0.0000E+00  0.0000E+00  0.1200E+02  0.1200E+02
    -40.982  0.0000E+00  0.0000E+00  0.1200E+02  0.1200E+02
    -40.800  0.0000E+00  0.0000E+00  0.1200E+02  0.1200E+02
    -40.617  0.0000E+00  0.0000E+00  0.1200E+02  0.1200E+02
    -40.434  0.0000E+00  0.0000E+00  0.1200E+02  0.1200E+02
    -40.251  0.0000E+00  0.0000E+00  0.1200E+02  0.1200E+02
    -40.068  0.0000E+00  0.0000E+00  0.1200E+02  0.1200E+02
    -39.885  0.0000E+00  0.0000E+00  0.1200E+02  0.1200E+02
    -39.702  0.0000E+00  0.0000E+00  0.1200E+02  0.1200E+02
    -39.519  0.0000E+00  0.0000E+00  0.1200E+02  0.1200E+02
    -39.336  0.0000E+00  0.0000E+00  0.1200E+02  0.1200E+02
    -39.153  0.0000E+00  0.0000E+00  0.1200E+02  0.1200E+02
    -38.970  0.0000E+00  0.0000E+00  0.1200E+02  0.1200E+02
    -38.787  0.0000E+00  0.0000E+00  0.1200E+02  0.1200E+02
    -38.605  0.0000E+00  0.0000E+00  0.1200E+02  0.1200E+02
    -38.422  0.0000E+00  0.0000E+00  0.1200E+02  0.1200E+02
    -38.239  0.0000E+00  0.0000E+00  0.1200E+02  0.1200E+02
    -38.056  0.0000E+00  0.0000E+00  0.1200E+02  0.1200E+02
    -37.873  0.0000E+00  0.0000E+00  0.1200E+02  0.1200E+02
    -37.690  0.0000E+00  0.0000E+00  0.1200E+02  0.1200E+02
    -37.507  0.0000E+00  0.0000E+00  0.1200E+02  0.1200E+02
    -37.324  0.0000E+00  0.0000E+00  0.1200E+02  0.1200E+02
    -37.141  0.0000E+00  0.0000E+00  0.1200E+02  0.1200E+02
    -36.958  0.6569E-04  0.6148E-04  0.1200E+02  0.1200E+02
    -36.775  0.6272E+01  0.6104E+01  0.1315E+02  0.1312E+02
    -36.592  0.5453E+02  0.5445E+02  0.2312E+02  0.2308E+02
    -36.410  0.9508E+02  0.9527E+02  0.4051E+02  0.4050E+02
    -36.227  0.2663E+01  0.2717E+01  0.4100E+02  0.4100E+02
    -36.044  0.5871E-08  0.6611E-08  0.4100E+02  0.4100E+02
    -35.861  0.0000E+00  0.0000E+00  0.4100E+02  0.4100E+02
    -35.678  0.0000E+00  0.0000E+00  0.4100E+02  0.4100E+02
    -35.495  0.0000E+00  0.0000E+00  0.4100E+02  0.4100E+02
    -35.312  0.0000E+00  0.0000E+00  0.4100E+02  0.4100E+02
    -35.129  0.2194E-08  0.0000E+00  0.4100E+02  0.4100E+02
    -34.946  0.1338E+01  0.0000E+00  0.4124E+02  0.4100E+02
    -34.763  0.1048E+02  0.1821E-14  0.4316E+02  0.4100E+02
    -34.580  0.4585E+01  0.1211E-01  0.4400E+02  0.4100E+02
    -34.397  0.7787E-04  0.1066E+02  0.4400E+02  0.4295E+02
    -34.215  0.0000E+00  0.5671E+01  0.4400E+02  0.4399E+02
    -34.032  0.0000E+00  0.5727E-01  0.4400E+02  0.4400E+02
    -33.849  0.0000E+00  0.0000E+00  0.4400E+02  0.4400E+02
    -33.666  0.0000E+00  0.0000E+00  0.4400E+02  0.4400E+02
    -33.483  0.0000E+00  0.0000E+00  0.4400E+02  0.4400E+02
    -33.300  0.0000E+00  0.0000E+00  0.4400E+02  0.4400E+02
    -33.117  0.0000E+00  0.0000E+00  0.4400E+02  0.4400E+02
    -32.934  0.0000E+00  0.0000E+00  0.4400E+02  0.4400E+02
    -32.751  0.0000E+00  0.0000E+00  0.4400E+02  0.4400E+02
    -32.568  0.0000E+00  0.0000E+00  0.4400E+02  0.4400E+02
    -32.385  0.0000E+00  0.0000E+00  0.4400E+02  0.4400E+02
    -32.203  0.0000E+00  0.0000E+00  0.4400E+02  0.4400E+02
    -32.020  0.0000E+00  0.0000E+00  0.4400E+02  0.4400E+02
    -31.837  0.0000E+00  0.0000E+00  0.4400E+02  0.4400E+02
    -31.654  0.0000E+00  0.0000E+00  0.4400E+02  0.4400E+02
    -31.471  0.0000E+00  0.0000E+00  0.4400E+02  0.4400E+02
    -31.288  0.0000E+00  0.0000E+00  0.4400E+02  0.4400E+02
    -31.105  0.0000E+00  0.0000E+00  0.4400E+02  0.4400E+02
    -30.922  0.0000E+00  0.0000E+00  0.4400E+02  0.4400E+02
    -30.739  0.0000E+00  0.0000E+00  0.4400E+02  0.4400E+02
    -30.556  0.0000E+00  0.0000E+00  0.4400E+02  0.4400E+02
    -30.373  0.0000E+00  0.0000E+00  0.4400E+02  0.4400E+02
    -30.190  0.0000E+00  0.0000E+00  0.4400E+02  0.4400E+02
    -30.008  0.0000E+00  0.0000E+00  0.4400E+02  0.4400E+02
    -29.825  0.0000E+00  0.0000E+00  0.4400E+02  0.4400E+02
    -29.642  0.0000E+00  0.0000E+00  0.4400E+02  0.4400E+02
    -29.459  0.0000E+00  0.0000E+00  0.4400E+02  0.4400E+02
    -29.276  0.0000E+00  0.0000E+00  0.4400E+02  0.4400E+02
    -29.093  0.0000E+00  0.0000E+00  0.4400E+02  0.4400E+02
    -28.910  0.0000E+00  0.0000E+00  0.4400E+02  0.4400E+02
    -28.727  0.0000E+00  0.0000E+00  0.4400E+02  0.4400E+02
    -28.544  0.0000E+00  0.0000E+00  0.4400E+02  0.4400E+02
    -28.361  0.0000E+00  0.0000E+00  0.4400E+02  0.4400E+02
    -28.178  0.0000E+00  0.0000E+00  0.4400E+02  0.4400E+02
    -27.995  0.0000E+00  0.0000E+00  0.4400E+02  0.4400E+02
    -27.813  0.0000E+00  0.0000E+00  0.4400E+02  0.4400E+02
    -27.630  0.0000E+00  0.0000E+00  0.4400E+02  0.4400E+02
    -27.447  0.0000E+00  0.0000E+00  0.4400E+02  0.4400E+02
    -27.264  0.0000E+00  0.0000E+00  0.4400E+02  0.4400E+02
    -27.081  0.0000E+00  0.0000E+00  0.4400E+02  0.4400E+02
    -26.898  0.0000E+00  0.0000E+00  0.4400E+02  0.4400E+02
    -26.715  0.2048E-08  0.5177E-12  0.4400E+02  0.4400E+02
    -26.532  0.8917E+00  0.7948E-01  0.4416E+02  0.4401E+02
    -26.349  0.4575E+01  0.5380E+01  0.4500E+02  0.4500E+02
    -26.166  0.7563E-04  0.7597E-02  0.4500E+02  0.4500E+02
    -25.983  0.0000E+00  0.0000E+00  0.4500E+02  0.4500E+02
    -25.800  0.0000E+00  0.0000E+00  0.4500E+02  0.4500E+02
    -25.618  0.0000E+00  0.0000E+00  0.4500E+02  0.4500E+02
    -25.435  0.0000E+00  0.0000E+00  0.4500E+02  0.4500E+02
    -25.252  0.0000E+00  0.0000E+00  0.4500E+02  0.4500E+02
    -25.069  0.0000E+00  0.0000E+00  0.4500E+02  0.4500E+02
    -24.886  0.0000E+00  0.0000E+00  0.4500E+02  0.4500E+02
    -24.703  0.0000E+00  0.0000E+00  0.4500E+02  0.4500E+02
    -24.520  0.0000E+00  0.0000E+00  0.4500E+02  0.4500E+02
    -24.337  0.0000E+00  0.0000E+00  0.4500E+02  0.4500E+02
    -24.154  0.0000E+00  0.0000E+00  0.4500E+02  0.4500E+02
    -23.971  0.0000E+00  0.0000E+00  0.4500E+02  0.4500E+02
    -23.788  0.0000E+00  0.0000E+00  0.4500E+02  0.4500E+02
    -23.606  0.0000E+00  0.0000E+00  0.4500E+02  0.4500E+02
    -23.423  0.0000E+00  0.0000E+00  0.4500E+02  0.4500E+02
    -23.240  0.0000E+00  0.0000E+00  0.4500E+02  0.4500E+02
    -23.057  0.0000E+00  0.0000E+00  0.4500E+02  0.4500E+02
    -22.874  0.0000E+00  0.0000E+00  0.4500E+02  0.4500E+02
    -22.691  0.0000E+00  0.0000E+00  0.4500E+02  0.4500E+02
    -22.508  0.0000E+00  0.0000E+00  0.4500E+02  0.4500E+02
    -22.325  0.0000E+00  0.0000E+00  0.4500E+02  0.4500E+02
    -22.142  0.0000E+00  0.0000E+00  0.4500E+02  0.4500E+02
    -21.959  0.0000E+00  0.0000E+00  0.4500E+02  0.4500E+02
    -21.776  0.2659E-06  0.1406E-06  0.4500E+02  0.4500E+02
    -21.593  0.2880E+01  0.2565E+01  0.4553E+02  0.4547E+02
    -21.411  0.1592E+02  0.1617E+02  0.4844E+02  0.4843E+02
    -21.228  0.3571E+02  0.3553E+02  0.5497E+02  0.5493E+02
    -21.045  0.4578E+02  0.4540E+02  0.6334E+02  0.6323E+02
    -20.862  0.3362E+02  0.3139E+02  0.6949E+02  0.6897E+02
    -20.679  0.9932E+01  0.1264E+02  0.7131E+02  0.7128E+02
    -20.496  0.2293E+02  0.2235E+02  0.7550E+02  0.7537E+02
    -20.313  0.2242E+02  0.2139E+02  0.7960E+02  0.7928E+02
    -20.130  0.2049E+02  0.2157E+02  0.8335E+02  0.8323E+02
    -19.947  0.4268E+02  0.4191E+02  0.9116E+02  0.9090E+02
    -19.764  0.2133E+02  0.2272E+02  0.9506E+02  0.9505E+02
    -19.581  0.1754E+02  0.1743E+02  0.9827E+02  0.9824E+02
    -19.398  0.1800E+02  0.1761E+02  0.1016E+03  0.1015E+03
    -19.216  0.4636E+01  0.5109E+01  0.1024E+03  0.1024E+03
    -19.033  0.6027E+02  0.5944E+02  0.1134E+03  0.1133E+03
    -18.850  0.7510E+02  0.7490E+02  0.1272E+03  0.1270E+03
    -18.667  0.4497E+02  0.4592E+02  0.1354E+03  0.1354E+03
    -18.484  0.1709E+02  0.1252E+02  0.1385E+03  0.1377E+03
    -18.301  0.2159E+02  0.2005E+02  0.1425E+03  0.1413E+03
    -18.118  0.2898E+02  0.2898E+02  0.1478E+03  0.1466E+03
    -17.935  0.2321E+02  0.2121E+02  0.1520E+03  0.1505E+03
    -17.752  0.1373E+02  0.1805E+02  0.1545E+03  0.1538E+03
    -17.569  0.8049E+01  0.1162E+02  0.1560E+03  0.1559E+03
    -17.386  0.9170E+01  0.2437E+01  0.1577E+03  0.1564E+03
    -17.203  0.1194E+02  0.1707E+02  0.1599E+03  0.1595E+03
    -17.021  0.2523E+02  0.2380E+02  0.1645E+03  0.1639E+03
    -16.838  0.3150E+02  0.3036E+02  0.1702E+03  0.1694E+03
    -16.655  0.2925E+02  0.2762E+02  0.1756E+03  0.1745E+03
    -16.472  0.2940E+02  0.3390E+02  0.1810E+03  0.1807E+03
    -16.289  0.1714E+02  0.1609E+02  0.1841E+03  0.1836E+03
    -16.106  0.3654E+02  0.3442E+02  0.1908E+03  0.1899E+03
    -15.923  0.4718E+02  0.4431E+02  0.1994E+03  0.1980E+03
    -15.740  0.8312E+01  0.1244E+02  0.2009E+03  0.2003E+03
    -15.557  0.1131E+02  0.1484E+02  0.2030E+03  0.2030E+03
    -15.374  0.1465E+02  0.1134E+02  0.2057E+03  0.2051E+03
    -15.191  0.1745E+01  0.5093E+01  0.2060E+03  0.2060E+03
    -15.009  0.1753E-07  0.3369E-05  0.2060E+03  0.2060E+03
    -14.826  0.0000E+00  0.0000E+00  0.2060E+03  0.2060E+03
    -14.643  0.0000E+00  0.0000E+00  0.2060E+03  0.2060E+03
    -14.460  0.0000E+00  0.0000E+00  0.2060E+03  0.2060E+03
    -14.277  0.0000E+00  0.0000E+00  0.2060E+03  0.2060E+03
    -14.094  0.0000E+00  0.0000E+00  0.2060E+03  0.2060E+03
    -13.911  0.0000E+00  0.0000E+00  0.2060E+03  0.2060E+03
    -13.728  0.0000E+00  0.0000E+00  0.2060E+03  0.2060E+03
    -13.545  0.0000E+00  0.0000E+00  0.2060E+03  0.2060E+03
    -13.362  0.0000E+00  0.0000E+00  0.2060E+03  0.2060E+03
    -13.179  0.0000E+00  0.0000E+00  0.2060E+03  0.2060E+03
    -12.996  0.4585E-06  0.3045E-09  0.2060E+03  0.2060E+03
    -12.814  0.2606E+01  0.5511E+00  0.2065E+03  0.2061E+03
    -12.631  0.2861E+01  0.4916E+01  0.2070E+03  0.2070E+03
    -12.448  0.8563E-06  0.2667E-03  0.2070E+03  0.2070E+03
    -12.265  0.0000E+00  0.0000E+00  0.2070E+03  0.2070E+03
    -12.082  0.0000E+00  0.0000E+00  0.2070E+03  0.2070E+03
    -11.899  0.0000E+00  0.0000E+00  0.2070E+03  0.2070E+03
    -11.716  0.0000E+00  0.0000E+00  0.2070E+03  0.2070E+03
    -11.533  0.0000E+00  0.0000E+00  0.2070E+03  0.2070E+03
    -11.350  0.0000E+00  0.0000E+00  0.2070E+03  0.2070E+03
    -11.167  0.0000E+00  0.0000E+00  0.2070E+03  0.2070E+03
    -10.984  0.0000E+00  0.0000E+00  0.2070E+03  0.2070E+03
    -10.801  0.0000E+00  0.0000E+00  0.2070E+03  0.2070E+03
    -10.619  0.3626E-10  0.9711E-14  0.2070E+03  0.2070E+03
    -10.436  0.3044E+00  0.1920E-01  0.2071E+03  0.2070E+03
    -10.253  0.5162E+01  0.5412E+01  0.2080E+03  0.2080E+03
    -10.070  0.9338E-03  0.3613E-01  0.2080E+03  0.2080E+03
     -9.887  0.1811E+01  0.1020E-01  0.2083E+03  0.2080E+03
     -9.704  0.3656E+01  0.5394E+01  0.2090E+03  0.2090E+03
     -9.521  0.7286E-04  0.6282E-01  0.2090E+03  0.2090E+03
     -9.338  0.4538E+01  0.2370E+01  0.2098E+03  0.2094E+03
     -9.155  0.9294E+00  0.3097E+01  0.2100E+03  0.2100E+03
     -8.972  0.2436E-08  0.1518E-05  0.2100E+03  0.2100E+03
     -8.789  0.0000E+00  0.0000E+00  0.2100E+03  0.2100E+03
     -8.606  0.0000E+00  0.0000E+00  0.2100E+03  0.2100E+03
     -8.424  0.0000E+00  0.0000E+00  0.2100E+03  0.2100E+03
     -8.241  0.0000E+00  0.0000E+00  0.2100E+03  0.2100E+03
     -8.058  0.6460E-06  0.3751E-11  0.2100E+03  0.2100E+03
     -7.875  0.2745E+01  0.1523E+00  0.2105E+03  0.2100E+03
     -7.692  0.2722E+01  0.5312E+01  0.2110E+03  0.2110E+03
     -7.509  0.6098E-06  0.3041E-02  0.2110E+03  0.2110E+03
     -7.326  0.2207E+00  0.1276E-02  0.2110E+03  0.2110E+03
     -7.143  0.7217E+01  0.6157E+01  0.2124E+03  0.2121E+03
     -6.960  0.3497E+01  0.4776E+01  0.2130E+03  0.2130E+03
     -6.777  0.5800E+00  0.1983E-01  0.2131E+03  0.2130E+03
     -6.594  0.4887E+01  0.5412E+01  0.2140E+03  0.2140E+03
     -6.412  0.8630E+01  0.3562E+01  0.2156E+03  0.2146E+03
     -6.229  0.1148E+02  0.1397E+02  0.2177E+03  0.2172E+03
     -6.046  0.2047E+02  0.2071E+02  0.2214E+03  0.2210E+03
     -5.863  0.1606E+02  0.1629E+02  0.2244E+03  0.2240E+03
     -5.680  0.4203E+02  0.4082E+02  0.2320E+03  0.2314E+03
     -5.497  0.5863E+02  0.6014E+02  0.2428E+03  0.2424E+03
     -5.314  0.6291E+02  0.6237E+02  0.2543E+03  0.2538E+03
     -5.131  0.6131E+02  0.6121E+02  0.2655E+03  0.2650E+03
     -4.948  0.5054E+02  0.5066E+02  0.2747E+03  0.2743E+03
     -4.765  0.5151E+02  0.5040E+02  0.2842E+03  0.2835E+03
     -4.582  0.3743E+02  0.3741E+02  0.2910E+03  0.2904E+03
     -4.399  0.3585E+02  0.3611E+02  0.2976E+03  0.2970E+03
     -4.217  0.4908E+02  0.4696E+02  0.3065E+03  0.3056E+03
     -4.034  0.2333E+02  0.2578E+02  0.3108E+03  0.3103E+03
     -3.851  0.5636E+02  0.5511E+02  0.3211E+03  0.3204E+03
     -3.668  0.6340E+02  0.6108E+02  0.3327E+03  0.3315E+03
     -3.485  0.7734E+02  0.7833E+02  0.3469E+03  0.3459E+03
     -3.302  0.1028E+03  0.1025E+03  0.3657E+03  0.3646E+03
     -3.119  0.7386E+02  0.7587E+02  0.3792E+03  0.3785E+03
     -2.936  0.9714E+02  0.9573E+02  0.3969E+03  0.3960E+03
     -2.753  0.6535E+02  0.6160E+02  0.4089E+03  0.4073E+03
     -2.570  0.4961E+02  0.5109E+02  0.4180E+03  0.4166E+03
     -2.387  0.1134E+02  0.1014E+02  0.4200E+03  0.4185E+03
     -2.204  0.1597E+02  0.8026E+01  0.4230E+03  0.4199E+03
     -2.022  0.5608E+01  0.3426E+00  0.4240E+03  0.4200E+03
     -1.839  0.3816E+00  0.4166E-02  0.4241E+03  0.4200E+03
     -1.656  0.5107E+01  0.1030E+02  0.4250E+03  0.4219E+03
     -1.473  0.1494E+01  0.6470E+00  0.4253E+03  0.4220E+03
     -1.290  0.3993E+01  0.5412E+01  0.4260E+03  0.4230E+03
     -1.107  0.5412E+01  0.4918E+00  0.4270E+03  0.4231E+03
     -0.924  0.3534E-01  0.5009E+01  0.4270E+03  0.4240E+03
     -0.741  0.4187E+01  0.5571E+00  0.4278E+03  0.4241E+03
     -0.558  0.1280E+01  0.4910E+01  0.4280E+03  0.4250E+03
     -0.375  0.1513E+02  0.1261E+02  0.4308E+03  0.4273E+03
     -0.192  0.1268E+03  0.1256E+03  0.4540E+03  0.4503E+03
     -0.009  0.3190E+03  0.3172E+03  0.5123E+03  0.5083E+03
      0.173  0.3797E+03  0.3829E+03  0.5818E+03  0.5784E+03
      0.356  0.9973E+02  0.1183E+03  0.6000E+03  0.6000E+03
      0.539  0.2750E-02  0.1071E-01  0.6000E+03  0.6000E+03
      0.722  0.0000E+00  0.0000E+00  0.6000E+03  0.6000E+03
      0.905  0.0000E+00  0.0000E+00  0.6000E+03  0.6000E+03
      1.088  0.0000E+00  0.0000E+00  0.6000E+03  0.6000E+03
      1.271  0.0000E+00  0.0000E+00  0.6000E+03  0.6000E+03
      1.454  0.0000E+00  0.0000E+00  0.6000E+03  0.6000E+03
      1.637  0.0000E+00  0.0000E+00  0.6000E+03  0.6000E+03
      1.820  0.0000E+00  0.0000E+00  0.6000E+03  0.6000E+03
      2.003  0.0000E+00  0.0000E+00  0.6000E+03  0.6000E+03
      2.185  0.0000E+00  0.0000E+00  0.6000E+03  0.6000E+03
      2.368  0.0000E+00  0.0000E+00  0.6000E+03  0.6000E+03
      2.551  0.0000E+00  0.0000E+00  0.6000E+03  0.6000E+03
      2.734  0.0000E+00  0.0000E+00  0.6000E+03  0.6000E+03
