  103  103    1    2
  0.4600984E+02  0.1553239E-08  0.1553239E-08  0.2268197E-08  0.5000000E-15
  1.000000000000000E-004
  CAR 
 unknown system                          
    844      1    600
 
  0.0000000E+00  0.0000000E+00  0.0000000E+00  0.1000000E+01
      1        -49.645931      -49.592384   1.000000   1.000000
      2        -49.339853      -49.151451   1.000000   1.000000
      3        -49.109096      -48.976930   1.000000   1.000000
      4        -48.809296      -48.704298   1.000000   1.000000
      5        -48.726312      -48.566272   1.000000   1.000000
      6        -48.595978      -48.461334   1.000000   1.000000
      7        -48.507232      -48.208379   1.000000   1.000000
      8        -48.229890      -48.143996   1.000000   1.000000
      9        -48.100953      -47.896931   1.000000   1.000000
     10        -47.958136      -47.779454   1.000000   1.000000
     11        -47.834735      -47.628555   1.000000   1.000000
     12        -47.755950      -47.621820   1.000000   1.000000
     13        -36.808958      -36.808433   1.000000   1.000000
     14        -36.746008      -36.743653   1.000000   1.000000
     15        -36.723299      -36.721536   1.000000   1.000000
     16        -36.714666      -36.713846   1.000000   1.000000
     17        -36.671940      -36.671605   1.000000   1.000000
     18        -36.641289      -36.640917   1.000000   1.000000
     19        -36.635021      -36.634663   1.000000   1.000000
     20        -36.628662      -36.628268   1.000000   1.000000
     21        -36.613814      -36.613411   1.000000   1.000000
     22        -36.607377      -36.606544   1.000000   1.000000
     23        -36.601257      -36.600597   1.000000   1.000000
     24        -36.594365      -36.594035   1.000000   1.000000
     25        -36.567511      -36.567332   1.000000   1.000000
     26        -36.563192      -36.562770   1.000000   1.000000
     27        -36.552964      -36.552350   1.000000   1.000000
     28        -36.551215      -36.550997   1.000000   1.000000
     29        -36.544603      -36.544256   1.000000   1.000000
     30        -36.538917      -36.538548   1.000000   1.000000
     31        -36.535463      -36.535161   1.000000   1.000000
     32        -36.526741      -36.526529   1.000000   1.000000
     33        -36.520114      -36.520092   1.000000   1.000000
     34        -36.511869      -36.511530   1.000000   1.000000
     35        -36.496229      -36.496010   1.000000   1.000000
     36        -36.493853      -36.492610   1.000000   1.000000
     37        -36.482121      -36.482065   1.000000   1.000000
     38        -36.471817      -36.471618   1.000000   1.000000
     39        -36.463001      -36.462742   1.000000   1.000000
     40        -36.448521      -36.448252   1.000000   1.000000
     41        -36.438275      -36.437591   1.000000   1.000000
     42        -34.911539      -34.477980   1.000000   1.000000
     43        -34.896889      -34.460015   1.000000   1.000000
     44        -34.728368      -34.296197   1.000000   1.000000
     45        -26.497432      -26.454981   1.000000   1.000000
     46        -21.587847      -21.583797   1.000000   1.000000
     47        -21.544279      -21.541249   1.000000   1.000000
     48        -21.507527      -21.505984   1.000000   1.000000
     49        -21.402037      -21.401438   1.000000   1.000000
     50        -21.345347      -21.343549   1.000000   1.000000
     51        -21.312609      -21.311419   1.000000   1.000000
     52        -21.294282      -21.293880   1.000000   1.000000
     53        -21.276228      -21.275941   1.000000   1.000000
     54        -21.257908      -21.257094   1.000000   1.000000
     55        -21.234035      -21.233474   1.000000   1.000000
     56        -21.227942      -21.226704   1.000000   1.000000
     57        -21.185418      -21.184617   1.000000   1.000000
     58        -21.173072      -21.171464   1.000000   1.000000
     59        -21.153498      -21.152210   1.000000   1.000000
     60        -21.144077      -21.140814   1.000000   1.000000
     61        -21.140650      -21.138725   1.000000   1.000000
     62        -21.088454      -21.085407   1.000000   1.000000
     63        -21.074130      -21.071731   1.000000   1.000000
     64        -21.045574      -21.042233   1.000000   1.000000
     65        -20.996675      -20.991379   1.000000   1.000000
     66        -20.987267      -20.983103   1.000000   1.000000
     67        -20.964091      -20.955457   1.000000   1.000000
     68        -20.917206      -20.907154   1.000000   1.000000
     69        -20.914657      -20.866977   1.000000   1.000000
     70        -20.871057      -20.862523   1.000000   1.000000
     71        -20.787386      -20.776559   1.000000   1.000000
     72        -20.657802      -20.655981   1.000000   1.000000
     73        -20.612399      -20.608376   1.000000   1.000000
     74        -20.586195      -20.581252   1.000000   1.000000
     75        -20.567671      -20.561942   1.000000   1.000000
     76        -20.496369      -20.487152   1.000000   1.000000
     77        -20.426910      -20.410726   1.000000   1.000000
     78        -20.382862      -20.376653   1.000000   1.000000
     79        -20.339644      -20.328389   1.000000   1.000000
     80        -20.301943      -20.297627   1.000000   1.000000
     81        -20.296235      -20.290152   1.000000   1.000000
     82        -20.276238      -20.257369   1.000000   1.000000
     83        -20.232500      -20.225374   1.000000   1.000000
     84        -20.111302      -20.100857   1.000000   1.000000
     85        -20.072082      -20.060783   1.000000   1.000000
     86        -20.035195      -20.030170   1.000000   1.000000
     87        -20.022083      -20.021279   1.000000   1.000000
     88        -20.015099      -20.014023   1.000000   1.000000
     89        -20.001824      -19.996974   1.000000   1.000000
     90        -19.973902      -19.969129   1.000000   1.000000
     91        -19.959642      -19.953965   1.000000   1.000000
     92        -19.949501      -19.944697   1.000000   1.000000
     93        -19.916444      -19.910235   1.000000   1.000000
     94        -19.907471      -19.902307   1.000000   1.000000
     95        -19.863308      -19.851759   1.000000   1.000000
     96        -19.707956      -19.707871   1.000000   1.000000
     97        -19.671258      -19.663452   1.000000   1.000000
     98        -19.655705      -19.647039   1.000000   1.000000
     99        -19.559782      -19.559318   1.000000   1.000000
    100        -19.508209      -19.503683   1.000000   1.000000
    101        -19.450393      -19.445529   1.000000   1.000000
    102        -19.410342      -19.403210   1.000000   1.000000
    103        -19.199158      -19.198999   1.000000   1.000000
    104        -19.160496      -19.157820   1.000000   1.000000
    105        -19.143873      -19.142439   1.000000   1.000000
    106        -19.118832      -19.117688   1.000000   1.000000
    107        -19.105469      -19.105045   1.000000   1.000000
    108        -19.102111      -19.098782   1.000000   1.000000
    109        -19.095280      -19.093836   1.000000   1.000000
    110        -19.076557      -19.073011   1.000000   1.000000
    111        -19.052710      -19.051228   1.000000   1.000000
    112        -19.048514      -19.047964   1.000000   1.000000
    113        -19.038601      -19.037402   1.000000   1.000000
    114        -19.031744      -19.030706   1.000000   1.000000
    115        -19.018417      -19.016300   1.000000   1.000000
    116        -19.008123      -19.007222   1.000000   1.000000
    117        -19.006226      -19.004563   1.000000   1.000000
    118        -18.995530      -18.991420   1.000000   1.000000
    119        -18.987184      -18.985959   1.000000   1.000000
    120        -18.976284      -18.975425   1.000000   1.000000
    121        -18.973435      -18.970040   1.000000   1.000000
    122        -18.958533      -18.957149   1.000000   1.000000
    123        -18.926238      -18.924318   1.000000   1.000000
    124        -18.901377      -18.900579   1.000000   1.000000
    125        -18.900343      -18.899352   1.000000   1.000000
    126        -18.883749      -18.882397   1.000000   1.000000
    127        -18.870650      -18.867514   1.000000   1.000000
    128        -18.837174      -18.825819   1.000000   1.000000
    129        -18.813855      -18.812925   1.000000   1.000000
    130        -18.809191      -18.806294   1.000000   1.000000
    131        -18.799839      -18.798670   1.000000   1.000000
    132        -18.782386      -18.781797   1.000000   1.000000
    133        -18.772056      -18.771039   1.000000   1.000000
    134        -18.770958      -18.759058   1.000000   1.000000
    135        -18.691391      -18.690643   1.000000   1.000000
    136        -18.679282      -18.678040   1.000000   1.000000
    137        -18.567292      -18.557420   1.000000   1.000000
    138        -18.551233      -18.492811   1.000000   1.000000
    139        -18.484123      -18.433610   1.000000   1.000000
    140        -18.418288      -18.360895   1.000000   1.000000
    141        -18.412903      -18.337507   1.000000   1.000000
    142        -18.377773      -18.298953   1.000000   1.000000
    143        -18.296431      -18.239578   1.000000   1.000000
    144        -18.236258      -18.204501   1.000000   1.000000
    145        -18.202176      -18.163632   1.000000   1.000000
    146        -18.177899      -18.149370   1.000000   1.000000
    147        -18.158937      -18.138262   1.000000   1.000000
    148        -18.129869      -18.077760   1.000000   1.000000
    149        -18.092599      -18.063723   1.000000   1.000000
    150        -18.068745      -18.041279   1.000000   1.000000
    151        -18.003455      -17.932603   1.000000   1.000000
    152        -17.962448      -17.870736   1.000000   1.000000
    153        -17.909671      -17.829775   1.000000   1.000000
    154        -17.867426      -17.783376   1.000000   1.000000
    155        -17.741095      -17.670932   1.000000   1.000000
    156        -17.715864      -17.622573   1.000000   1.000000
    157        -17.424086      -17.365298   1.000000   1.000000
    158        -17.393950      -17.339979   1.000000   1.000000
    159        -17.360962      -17.301002   1.000000   1.000000
    160        -17.227956      -17.200758   1.000000   1.000000
    161        -17.151028      -17.138138   1.000000   1.000000
    162        -17.140168      -17.099223   1.000000   1.000000
    163        -17.082121      -17.063468   1.000000   1.000000
    164        -17.051106      -17.031155   1.000000   1.000000
    165        -17.028815      -17.003331   1.000000   1.000000
    166        -16.972527      -16.957169   1.000000   1.000000
    167        -16.952028      -16.940036   1.000000   1.000000
    168        -16.927726      -16.899306   1.000000   1.000000
    169        -16.909997      -16.881920   1.000000   1.000000
    170        -16.856639      -16.826781   1.000000   1.000000
    171        -16.842015      -16.804638   1.000000   1.000000
    172        -16.754671      -16.720162   1.000000   1.000000
    173        -16.724440      -16.690873   1.000000   1.000000
    174        -16.709457      -16.681738   1.000000   1.000000
    175        -16.686927      -16.675713   1.000000   1.000000
    176        -16.656441      -16.605838   1.000000   1.000000
    177        -16.623657      -16.594639   1.000000   1.000000
    178        -16.615477      -16.578158   1.000000   1.000000
    179        -16.574441      -16.539454   1.000000   1.000000
    180        -16.547408      -16.520652   1.000000   1.000000
    181        -16.539990      -16.498160   1.000000   1.000000
    182        -16.386984      -16.362648   1.000000   1.000000
    183        -16.361760      -16.327943   1.000000   1.000000
    184        -16.325474      -16.299726   1.000000   1.000000
    185        -16.253112      -16.241770   1.000000   1.000000
    186        -16.235822      -16.226227   1.000000   1.000000
    187        -16.229990      -16.199445   1.000000   1.000000
    188        -16.185879      -16.164777   1.000000   1.000000
    189        -16.171034      -16.142684   1.000000   1.000000
    190        -16.122363      -16.106381   1.000000   1.000000
    191        -16.103964      -16.084342   1.000000   1.000000
    192        -16.087398      -16.080803   1.000000   1.000000
    193        -16.074904      -16.050749   1.000000   1.000000
    194        -16.059675      -16.035223   1.000000   1.000000
    195        -16.048593      -16.013281   1.000000   1.000000
    196        -16.035035      -16.000550   1.000000   1.000000
    197        -16.027768      -15.990156   1.000000   1.000000
    198        -15.997413      -15.949928   1.000000   1.000000
    199        -15.952557      -15.890245   1.000000   1.000000
    200        -15.935378      -15.877736   1.000000   1.000000
    201        -15.756796      -15.717719   1.000000   1.000000
    202        -15.709689      -15.658203   1.000000   1.000000
    203        -15.684771      -15.651300   1.000000   1.000000
    204        -15.455210      -15.435611   1.000000   1.000000
    205        -15.434511      -15.396690   1.000000   1.000000
    206        -15.396679      -15.362942   1.000000   1.000000
    207        -12.811465      -12.768378   1.000000   1.000000
    208        -10.379344      -10.340323   1.000000   1.000000
    209         -9.871456       -9.784362   1.000000   1.000000
    210         -9.371878       -9.332221   1.000000   1.000000
    211         -7.875016       -7.807183   1.000000   1.000000
    212         -7.264335       -7.202370   1.000000   1.000000
    213         -7.130560       -7.109903   1.000000   1.000000
    214         -6.733227       -6.682370   1.000000   1.000000
    215         -6.455120       -6.424610   1.000000   1.000000
    216         -6.419639       -6.295170   1.000000   1.000000
    217         -6.365427       -6.253685   1.000000   1.000000
    218         -6.233127       -6.224338   1.000000   1.000000
    219         -6.187791       -6.153922   1.000000   1.000000
    220         -6.130479       -6.112724   1.000000   1.000000
    221         -6.070837       -6.063773   1.000000   1.000000
    222         -6.052660       -6.027210   1.000000   1.000000
    223         -5.998170       -5.975692   1.000000   1.000000
    224         -5.928109       -5.907334   1.000000   1.000000
    225         -5.844744       -5.806003   1.000000   1.000000
    226         -5.810033       -5.785317   1.000000   1.000000
    227         -5.784557       -5.772337   1.000000   1.000000
    228         -5.772861       -5.745436   1.000000   1.000000
    229         -5.731512       -5.717846   1.000000   1.000000
    230         -5.718623       -5.702186   1.000000   1.000000
    231         -5.698768       -5.692161   1.000000   1.000000
    232         -5.683680       -5.679178   1.000000   1.000000
    233         -5.677944       -5.668903   1.000000   1.000000
    234         -5.662311       -5.653479   1.000000   1.000000
    235         -5.648081       -5.639356   1.000000   1.000000
    236         -5.610252       -5.597458   1.000000   1.000000
    237         -5.595769       -5.589075   1.000000   1.000000
    238         -5.590881       -5.578747   1.000000   1.000000
    239         -5.574933       -5.560506   1.000000   1.000000
    240         -5.563809       -5.559356   1.000000   1.000000
    241         -5.550821       -5.542970   1.000000   1.000000
    242         -5.511653       -5.504952   1.000000   1.000000
    243         -5.496854       -5.493091   1.000000   1.000000
    244         -5.492528       -5.485366   1.000000   1.000000
    245         -5.456421       -5.452313   1.000000   1.000000
    246         -5.454015       -5.447716   1.000000   1.000000
    247         -5.424882       -5.419443   1.000000   1.000000
    248         -5.419141       -5.410434   1.000000   1.000000
    249         -5.391667       -5.381235   1.000000   1.000000
    250         -5.370158       -5.362473   1.000000   1.000000
    251         -5.361163       -5.354987   1.000000   1.000000
    252         -5.353610       -5.348158   1.000000   1.000000
    253         -5.341300       -5.336616   1.000000   1.000000
    254         -5.324034       -5.319177   1.000000   1.000000
    255         -5.311436       -5.307374   1.000000   1.000000
    256         -5.298318       -5.293900   1.000000   1.000000
    257         -5.284375       -5.277570   1.000000   1.000000
    258         -5.267148       -5.258044   1.000000   1.000000
    259         -5.254299       -5.245743   1.000000   1.000000
    260         -5.250986       -5.232738   1.000000   1.000000
    261         -5.224736       -5.208960   1.000000   1.000000
    262         -5.206464       -5.196838   1.000000   1.000000
    263         -5.199734       -5.182316   1.000000   1.000000
    264         -5.180459       -5.170982   1.000000   1.000000
    265         -5.160177       -5.147109   1.000000   1.000000
    266         -5.122313       -5.111854   1.000000   1.000000
    267         -5.106101       -5.102014   1.000000   1.000000
    268         -5.085098       -5.078578   1.000000   1.000000
    269         -5.080766       -5.071100   1.000000   1.000000
    270         -5.049236       -5.041892   1.000000   1.000000
    271         -5.028689       -5.025265   1.000000   1.000000
    272         -5.001320       -4.992313   1.000000   1.000000
    273         -4.992241       -4.984886   1.000000   1.000000
    274         -4.971528       -4.964630   1.000000   1.000000
    275         -4.946197       -4.938209   1.000000   1.000000
    276         -4.933493       -4.924226   1.000000   1.000000
    277         -4.917181       -4.910761   1.000000   1.000000
    278         -4.905230       -4.900556   1.000000   1.000000
    279         -4.890939       -4.881085   1.000000   1.000000
    280         -4.856157       -4.848740   1.000000   1.000000
    281         -4.852235       -4.834117   1.000000   1.000000
    282         -4.817011       -4.812027   1.000000   1.000000
    283         -4.800858       -4.789633   1.000000   1.000000
    284         -4.778764       -4.763685   1.000000   1.000000
    285         -4.754016       -4.739419   1.000000   1.000000
    286         -4.735611       -4.719669   1.000000   1.000000
    287         -4.723494       -4.710893   1.000000   1.000000
    288         -4.702146       -4.692446   1.000000   1.000000
    289         -4.693438       -4.676567   1.000000   1.000000
    290         -4.633384       -4.607489   1.000000   1.000000
    291         -4.611989       -4.586282   1.000000   1.000000
    292         -4.545213       -4.523423   1.000000   1.000000
    293         -4.537456       -4.505162   1.000000   1.000000
    294         -4.512702       -4.488349   1.000000   1.000000
    295         -4.500480       -4.487084   1.000000   1.000000
    296         -4.449221       -4.433053   1.000000   1.000000
    297         -4.430033       -4.411037   1.000000   1.000000
    298         -4.412790       -4.396337   1.000000   1.000000
    299         -4.355246       -4.339130   1.000000   1.000000
    300         -4.341483       -4.320721   1.000000   1.000000
    301         -4.332239       -4.315853   1.000000   1.000000
    302         -4.313036       -4.278492   1.000000   1.000000
    303         -4.291114       -4.275884   1.000000   1.000000
    304         -4.277487       -4.252044   1.000000   1.000000
    305         -4.268385       -4.245431   1.000000   1.000000
    306         -4.256781       -4.225812   1.000000   1.000000
    307         -4.224723       -4.202231   1.000000   1.000000
    308         -4.186234       -4.165139   1.000000   1.000000
    309         -4.141473       -4.105094   1.000000   1.000000
    310         -4.100068       -4.059259   1.000000   1.000000
    311         -4.029837       -4.016858   1.000000   1.000000
    312         -3.999786       -3.993162   1.000000   1.000000
    313         -3.992584       -3.984072   1.000000   1.000000
    314         -3.983642       -3.950520   1.000000   1.000000
    315         -3.950876       -3.932576   1.000000   1.000000
    316         -3.933742       -3.921573   1.000000   1.000000
    317         -3.918138       -3.902795   1.000000   1.000000
    318         -3.900350       -3.891082   1.000000   1.000000
    319         -3.890308       -3.882071   1.000000   1.000000
    320         -3.881918       -3.874670   1.000000   1.000000
    321         -3.867117       -3.854026   1.000000   1.000000
    322         -3.841402       -3.831689   1.000000   1.000000
    323         -3.825898       -3.809047   1.000000   1.000000
    324         -3.813371       -3.794582   1.000000   1.000000
    325         -3.801307       -3.777620   1.000000   1.000000
    326         -3.769280       -3.751046   1.000000   1.000000
    327         -3.753511       -3.735104   1.000000   1.000000
    328         -3.746071       -3.725516   1.000000   1.000000
    329         -3.724201       -3.705039   1.000000   1.000000
    330         -3.714565       -3.698618   1.000000   1.000000
    331         -3.694823       -3.687707   1.000000   1.000000
    332         -3.680695       -3.664254   1.000000   1.000000
    333         -3.670756       -3.654005   1.000000   1.000000
    334         -3.657553       -3.638950   1.000000   1.000000
    335         -3.634871       -3.627768   1.000000   1.000000
    336         -3.633592       -3.607771   1.000000   1.000000
    337         -3.623368       -3.600748   1.000000   1.000000
    338         -3.608078       -3.597139   1.000000   1.000000
    339         -3.605250       -3.575849   1.000000   1.000000
    340         -3.584358       -3.567829   1.000000   1.000000
    341         -3.579371       -3.555462   1.000000   1.000000
    342         -3.553411       -3.532847   1.000000   1.000000
    343         -3.546514       -3.522750   1.000000   1.000000
    344         -3.524457       -3.505882   1.000000   1.000000
    345         -3.508245       -3.498047   1.000000   1.000000
    346         -3.494985       -3.482442   1.000000   1.000000
    347         -3.483597       -3.471407   1.000000   1.000000
    348         -3.471583       -3.467424   1.000000   1.000000
    349         -3.460465       -3.456013   1.000000   1.000000
    350         -3.455213       -3.449527   1.000000   1.000000
    351         -3.449309       -3.442402   1.000000   1.000000
    352         -3.442221       -3.435453   1.000000   1.000000
    353         -3.427732       -3.416879   1.000000   1.000000
    354         -3.423760       -3.410719   1.000000   1.000000
    355         -3.418838       -3.406825   1.000000   1.000000
    356         -3.413711       -3.392090   1.000000   1.000000
    357         -3.392111       -3.377002   1.000000   1.000000
    358         -3.379967       -3.372062   1.000000   1.000000
    359         -3.352237       -3.344540   1.000000   1.000000
    360         -3.348979       -3.339636   1.000000   1.000000
    361         -3.340898       -3.336114   1.000000   1.000000
    362         -3.336895       -3.330149   1.000000   1.000000
    363         -3.333623       -3.324186   1.000000   1.000000
    364         -3.321735       -3.315938   1.000000   1.000000
    365         -3.316690       -3.314966   1.000000   1.000000
    366         -3.308067       -3.300628   1.000000   1.000000
    367         -3.302753       -3.290729   1.000000   1.000000
    368         -3.289276       -3.274343   1.000000   1.000000
    369         -3.282001       -3.254796   1.000000   1.000000
    370         -3.265089       -3.242674   1.000000   1.000000
    371         -3.246244       -3.232676   1.000000   1.000000
    372         -3.231108       -3.225715   1.000000   1.000000
    373         -3.223912       -3.219785   1.000000   1.000000
    374         -3.201471       -3.195306   1.000000   1.000000
    375         -3.195693       -3.194198   1.000000   1.000000
    376         -3.162837       -3.155084   1.000000   1.000000
    377         -3.156270       -3.142284   1.000000   1.000000
    378         -3.141572       -3.126399   1.000000   1.000000
    379         -3.122698       -3.119059   1.000000   1.000000
    380         -3.119220       -3.109150   1.000000   1.000000
    381         -3.095571       -3.091084   1.000000   1.000000
    382         -3.084060       -3.077791   1.000000   1.000000
    383         -3.074676       -3.064170   1.000000   1.000000
    384         -3.063875       -3.056750   1.000000   1.000000
    385         -3.058876       -3.042644   1.000000   1.000000
    386         -3.050287       -3.038629   1.000000   1.000000
    387         -3.043458       -3.018332   1.000000   1.000000
    388         -3.039419       -3.004122   1.000000   1.000000
    389         -3.017865       -2.999919   1.000000   1.000000
    390         -3.006544       -2.989634   1.000000   1.000000
    391         -3.002935       -2.986597   1.000000   1.000000
    392         -2.990286       -2.981275   1.000000   1.000000
    393         -2.985489       -2.972918   1.000000   1.000000
    394         -2.976980       -2.967581   1.000000   1.000000
    395         -2.966682       -2.958721   1.000000   1.000000
    396         -2.954317       -2.941545   1.000000   1.000000
    397         -2.944031       -2.934407   1.000000   1.000000
    398         -2.931585       -2.921792   1.000000   1.000000
    399         -2.921929       -2.914505   1.000000   1.000000
    400         -2.910782       -2.896043   1.000000   1.000000
    401         -2.884231       -2.880970   1.000000   1.000000
    402         -2.880074       -2.876609   1.000000   1.000000
    403         -2.871566       -2.869996   1.000000   1.000000
    404         -2.826991       -2.786658   1.000000   1.000000
    405         -2.816652       -2.778043   1.000000   1.000000
    406         -2.783156       -2.771829   1.000000   1.000000
    407         -2.772055       -2.755855   1.000000   1.000000
    408         -2.767894       -2.743213   1.000000   1.000000
    409         -2.744893       -2.732075   1.000000   1.000000
    410         -2.743057       -2.729553   1.000000   1.000000
    411         -2.737805       -2.725327   1.000000   1.000000
    412         -2.727272       -2.716756   1.000000   1.000000
    413         -2.722919       -2.704592   1.000000   1.000000
    414         -2.711609       -2.700173   1.000000   1.000000
    415         -2.703006       -2.680679   1.000000   1.000000
    416         -2.687335       -2.644777   1.000000   1.000000
    417         -2.671446       -2.581869   1.000000   1.000000
    418         -2.599695       -2.480870   1.000000   1.000000
    419         -2.538052       -2.385008   1.000000   1.000000
    420         -2.451130       -2.258655   1.000000   1.000000
    421         -2.338360       -1.725684   1.000000   0.000000
    422         -2.285105       -1.702965   1.000000   0.000000
    423         -2.274163       -1.378157   1.000000   0.000000
    424         -2.115263       -1.058158   0.999998   0.000000
    425         -1.785318       -0.696202   0.000002   0.000000
    426         -1.451480       -0.406326   0.000000   0.000000
    427         -1.194866       -0.379396   0.000000   0.000000
    428         -0.766792       -0.371346   0.000000   0.000000
    429         -0.424663       -0.350954   0.000000   0.000000
    430         -0.382625       -0.333719   0.000000   0.000000
    431         -0.377467       -0.327897   0.000000   0.000000
    432         -0.361428       -0.304799   0.000000   0.000000
    433         -0.347591       -0.291857   0.000000   0.000000
    434         -0.332465       -0.281589   0.000000   0.000000
    435         -0.311494       -0.273875   0.000000   0.000000
    436         -0.303349       -0.262857   0.000000   0.000000
    437         -0.284943       -0.261711   0.000000   0.000000
    438         -0.278268       -0.249492   0.000000   0.000000
    439         -0.265716       -0.243362   0.000000   0.000000
    440         -0.264207       -0.242232   0.000000   0.000000
    441         -0.251378       -0.236110   0.000000   0.000000
    442         -0.246697       -0.232224   0.000000   0.000000
    443         -0.244387       -0.226789   0.000000   0.000000
    444         -0.237419       -0.217836   0.000000   0.000000
    445         -0.235582       -0.214236   0.000000   0.000000
    446         -0.228323       -0.210149   0.000000   0.000000
    447         -0.220340       -0.201699   0.000000   0.000000
    448         -0.217208       -0.198827   0.000000   0.000000
    449         -0.213008       -0.196327   0.000000   0.000000
    450         -0.208066       -0.194419   0.000000   0.000000
    451         -0.203367       -0.190594   0.000000   0.000000
    452         -0.199456       -0.187651   0.000000   0.000000
    453         -0.196592       -0.185113   0.000000   0.000000
    454         -0.193001       -0.178241   0.000000   0.000000
    455         -0.189046       -0.170389   0.000000   0.000000
    456         -0.186883       -0.166949   0.000000   0.000000
    457         -0.180224       -0.165578   0.000000   0.000000
    458         -0.176917       -0.162970   0.000000   0.000000
    459         -0.169373       -0.156925   0.000000   0.000000
    460         -0.167836       -0.155637   0.000000   0.000000
    461         -0.164698       -0.150993   0.000000   0.000000
    462         -0.159069       -0.146438   0.000000   0.000000
    463         -0.157991       -0.140264   0.000000   0.000000
    464         -0.153233       -0.139808   0.000000   0.000000