 running  120 mpi-ranks, on    1 nodes
 distrk:  each k-point on  120 cores,    1 groups
 distr:  one band on    1 cores,  120 groups
 vasp.6.4.3 19Mar24 (build Jul 25 2024 07:57:48) complex                        
  
 POSCAR found type information on POSCAR CeRhN O 
 POSCAR found :  4 types and     103 ions
 -----------------------------------------------------------------------------
|                                                                             |
|           W    W    AA    RRRRR   N    N  II  N    N   GGGG   !!!           |
|           W    W   A  A   R    R  NN   N  II  NN   N  G    G  !!!           |
|           W    W  A    A  R    R  N N  N  II  N N  N  G       !!!           |
|           W WW W  AAAAAA  RRRRR   N  N N  II  N  N N  G  GGG   !            |
|           WW  WW  A    A  R   R   N   NN  II  N   NN  G    G                |
|           W    W  A    A  R    R  N    N  II  N    N   GGGG   !!!           |
|                                                                             |
|     You use a magnetic or noncollinear calculation, but did not specify     |
|     the initial magnetic moment with the MAGMOM tag. Note that a            |
|     default of 1 will be used for all atoms. This ferromagnetic setup       |
|     may break the symmetry of the crystal, in particular it may rule        |
|     out finding an antiferromagnetic solution. Thence, we recommend         |
|     setting the initial magnetic moment manually or verifying carefully     |
|     that this magnetic setup is desired.                                    |
|                                                                             |
 -----------------------------------------------------------------------------

 scaLAPACK will be used
 -----------------------------------------------------------------------------
|                                                                             |
|           W    W    AA    RRRRR   N    N  II  N    N   GGGG   !!!           |
|           W    W   A  A   R    R  NN   N  II  NN   N  G    G  !!!           |
|           W    W  A    A  R    R  N N  N  II  N N  N  G       !!!           |
|           W WW W  AAAAAA  RRRRR   N  N N  II  N  N N  G  GGG   !            |
|           WW  WW  A    A  R   R   N   NN  II  N   NN  G    G                |
|           W    W  A    A  R    R  N    N  II  N    N   GGGG   !!!           |
|                                                                             |
|     For optimal performance we recommend to set                             |
|       NCORE = 2 up to number-of-cores-per-socket                            |
|     NCORE specifies how many cores store one orbital (NPAR=cpu/NCORE).      |
|     This setting can greatly improve the performance of VASP for DFT.       |
|     The default, NCORE=1 might be grossly inefficient on modern             |
|     multi-core architectures or massively parallel machines. Do your        |
|     own testing! More info at https://www.vasp.at/wiki/index.php/NCORE      |
|     Unfortunately you need to use the default for GW and RPA                |
|     calculations (for HF NCORE is supported but not extensively tested      |
|     yet).                                                                   |
|                                                                             |
 -----------------------------------------------------------------------------

 LDA part: xc-table for (Slater+PW92), standard interpolation
 POSCAR found type information on POSCAR CeRhN O 
 POSCAR found :  4 types and     103 ions
 POSCAR, INCAR and KPOINTS ok, starting setup
 FFT: planning ... GRIDC
 FFT: planning ... GRID_SOFT
 FFT: planning ... GRID
 WAVECAR not read
 WARNING: random wavefunctions but no delay for mixing, default for NELMDL
 entering main loop
       N       E                     dE             d eps       ncg     rms          rms(c)
DAV:   1     0.124034296655E+05    0.12403E+05   -0.31451E+05  2400   0.116E+03
DAV:   2     0.313646808786E+04   -0.92670E+04   -0.84870E+04  3120   0.309E+02
DAV:   3    -0.732754647665E+03   -0.38692E+04   -0.37722E+04  3600   0.214E+02
DAV:   4    -0.981670858582E+03   -0.24892E+03   -0.24843E+03  3000   0.668E+01
DAV:   5    -0.100177690314E+04   -0.20106E+02   -0.20032E+02  4560   0.170E+01    0.139E+02
DAV:   6    -0.680934271952E+03    0.32084E+03   -0.21768E+03  3600   0.543E+01    0.102E+02
DAV:   7    -0.719239361263E+03   -0.38305E+02   -0.24611E+03  3000   0.109E+02    0.835E+01
DAV:   8    -0.727688254559E+03   -0.84489E+01   -0.32952E+02  3960   0.332E+01    0.550E+01
DAV:   9    -0.688672090874E+03    0.39016E+02   -0.15691E+02  3960   0.186E+01    0.378E+01
DAV:  10    -0.677362919039E+03    0.11309E+02   -0.12405E+02  3720   0.119E+01    0.548E+01
DAV:  11    -0.673163951302E+03    0.41990E+01   -0.93264E+01  3840   0.801E+00    0.266E+01
DAV:  12    -0.670190612914E+03    0.29733E+01   -0.22045E+01  3960   0.771E+00    0.197E+01
DAV:  13    -0.687424240937E+03   -0.17234E+02   -0.70730E+01  3840   0.802E+00    0.719E+01
DAV:  14    -0.679385142894E+03    0.80391E+01   -0.17502E+02  4080   0.115E+01    0.177E+01
DAV:  15    -0.692266649551E+03   -0.12882E+02   -0.20848E+01  4200   0.705E+00    0.159E+01
DAV:  16    -0.709521668341E+03   -0.17255E+02   -0.12364E+01  3720   0.431E+00    0.144E+01
DAV:  17    -0.728855746427E+03   -0.19334E+02   -0.13041E+01  3840   0.537E+00    0.116E+01
DAV:  18    -0.748568335438E+03   -0.19713E+02   -0.25331E+01  3600   0.501E+00    0.371E+01
DAV:  19    -0.747490147265E+03    0.10782E+01   -0.99535E+00  4440   0.183E+00    0.305E+01
DAV:  20    -0.753972753338E+03   -0.64826E+01   -0.86177E+00  3600   0.257E+00    0.133E+01
DAV:  21    -0.758040003505E+03   -0.40673E+01   -0.11551E+00  4080   0.167E+00    0.123E+01
DAV:  22    -0.768268360293E+03   -0.10228E+02   -0.51281E+00  3480   0.384E+00    0.186E+01
DAV:  23    -0.768966721633E+03   -0.69836E+00   -0.81701E-01  4080   0.137E+00    0.176E+01
DAV:  24    -0.771775893739E+03   -0.28092E+01   -0.40671E+00  3840   0.136E+00    0.263E+01
DAV:  25    -0.771670090185E+03    0.10580E+00   -0.93369E-02  3840   0.467E-01    0.263E+01
DAV:  26    -0.771623249779E+03    0.46840E-01   -0.16005E-02  4560   0.107E-01    0.262E+01
DAV:  27    -0.771679860862E+03   -0.56611E-01   -0.32089E-01  4080   0.783E-02    0.263E+01
DAV:  28    -0.773381051584E+03   -0.17012E+01   -0.56956E+00  3600   0.862E-01    0.283E+01
DAV:  29    -0.774165868764E+03   -0.78482E+00   -0.41314E+00  3600   0.788E-01    0.290E+01
DAV:  30    -0.774214469118E+03   -0.48600E-01   -0.10742E+00  3480   0.471E-01    0.332E+01
DAV:  31    -0.774281978283E+03   -0.67509E-01   -0.69631E-02  3720   0.206E-01    0.334E+01
DAV:  32    -0.774314823742E+03   -0.32845E-01   -0.27479E-01  3720   0.144E-01    0.333E+01
DAV:  33    -0.774516135636E+03   -0.20131E+00   -0.59971E-01  3480   0.245E-01    0.333E+01
DAV:  34    -0.774521444473E+03   -0.53088E-02   -0.64235E-03  3240   0.103E-01    0.333E+01
DAV:  35    -0.774773163451E+03   -0.25172E+00   -0.24631E-01  3240   0.212E-01    0.333E+01
DAV:  36    -0.774904832245E+03   -0.13167E+00   -0.48554E-01  3600   0.231E-01    0.334E+01
DAV:  37    -0.774858387440E+03    0.46445E-01   -0.97469E-03  3360   0.103E-01    0.334E+01
DAV:  38    -0.774893640130E+03   -0.35253E-01   -0.54596E-01  3480   0.386E-01    0.333E+01
DAV:  39    -0.775603912563E+03   -0.71027E+00   -0.15343E+00  3480   0.638E-01    0.336E+01
DAV:  40    -0.775997993220E+03   -0.39408E+00   -0.55721E-01  3600   0.525E-01    0.349E+01
DAV:  41    -0.775973889139E+03    0.24104E-01   -0.47403E-03  3240   0.105E-01    0.349E+01
DAV:  42    -0.775860331415E+03    0.11356E+00   -0.10860E-01  3240   0.303E-01    0.359E+01
DAV:  43    -0.775959465126E+03   -0.99134E-01   -0.32542E-02  3840   0.129E-01    0.351E+01
DAV:  44    -0.775908088731E+03    0.51376E-01   -0.11300E-01  3480   0.208E-01    0.337E+01
DAV:  45    -0.775918000768E+03   -0.99120E-02   -0.18213E-01  3360   0.210E-01    0.335E+01
DAV:  46    -0.775706059072E+03    0.21194E+00   -0.17123E-01  3360   0.344E-01    0.333E+01
DAV:  47    -0.775676387750E+03    0.29671E-01   -0.38712E-01  3480   0.446E-01    0.332E+01
DAV:  48    -0.775858015228E+03   -0.18163E+00   -0.22192E-01  3600   0.319E-01    0.332E+01
DAV:  49    -0.775854262528E+03    0.37527E-02   -0.12352E-01  3600   0.216E-01    0.332E+01
DAV:  50    -0.775858311966E+03   -0.40494E-02   -0.11353E-02  3840   0.837E-02    0.332E+01
DAV:  51    -0.769507836073E+03    0.63505E+01   -0.96230E+00  3600   0.399E+00    0.212E+01
DAV:  52    -0.769700667904E+03   -0.19283E+00   -0.97323E-01  4080   0.152E+00    0.206E+01
DAV:  53    -0.770771198418E+03   -0.10705E+01   -0.33238E+00  3720   0.230E+00    0.191E+01
DAV:  54    -0.774265819809E+03   -0.34946E+01   -0.14437E+01  3720   0.396E+00    0.182E+01
DAV:  55    -0.777513438478E+03   -0.32476E+01   -0.16491E+00  3720   0.181E+00    0.174E+01
DAV:  56    -0.781634510866E+03   -0.41211E+01   -0.79296E+00  3720   0.384E+00    0.155E+01
DAV:  57    -0.783132699555E+03   -0.14982E+01   -0.89157E-01  3960   0.138E+00    0.152E+01
DAV:  58    -0.783873575747E+03   -0.74088E+00   -0.10905E+00  3960   0.170E+00    0.149E+01
DAV:  59    -0.783600528022E+03    0.27305E+00   -0.18939E+00  3480   0.224E+00    0.148E+01
DAV:  60    -0.782764642973E+03    0.83589E+00   -0.10632E+00  3600   0.169E+00    0.151E+01
DAV:  61    -0.778359158735E+03    0.44055E+01   -0.62745E+00  3480   0.516E+00    0.159E+01
DAV:  62    -0.778065599455E+03    0.29356E+00   -0.13069E+00  3840   0.205E+00    0.159E+01
DAV:  63    -0.777070103787E+03    0.99550E+00   -0.83677E-01  4080   0.159E+00    0.170E+01
DAV:  64    -0.776869110024E+03    0.20099E+00   -0.76224E-02  4200   0.338E-01    0.172E+01
DAV:  65    -0.777025172128E+03   -0.15606E+00   -0.55468E-02  3840   0.335E-01    0.171E+01
DAV:  66    -0.780221654153E+03   -0.31965E+01   -0.67669E+00  3120   0.428E+00    0.180E+01
DAV:  67    -0.781959878755E+03   -0.17382E+01   -0.17962E+00  3600   0.195E+00    0.171E+01
DAV:  68    -0.782352106529E+03   -0.39223E+00   -0.38641E-01  3000   0.922E-01    0.166E+01
DAV:  69    -0.782516566354E+03   -0.16446E+00   -0.38183E-01  3720   0.801E-01    0.161E+01
DAV:  70    -0.782544419610E+03   -0.27853E-01   -0.24883E-02  3960   0.184E-01    0.161E+01
DAV:  71    -0.782451397149E+03    0.93022E-01   -0.47050E+00  3240   0.196E+00    0.149E+01
DAV:  72    -0.783621067132E+03   -0.11697E+01   -0.80166E-01  3600   0.144E+00    0.131E+01
DAV:  73    -0.784747541605E+03   -0.11265E+01   -0.55473E+00  3360   0.280E+00    0.110E+01
DAV:  74    -0.785801535330E+03   -0.10540E+01   -0.11992E+00  3840   0.167E+00    0.106E+01
DAV:  75    -0.786055231693E+03   -0.25370E+00   -0.37273E-01  3840   0.699E-01    0.106E+01
DAV:  76    -0.786663389800E+03   -0.60816E+00   -0.10844E+00  3360   0.173E+00    0.960E+00
DAV:  77    -0.787114118019E+03   -0.45073E+00   -0.18961E-01  3480   0.763E-01    0.946E+00
DAV:  78    -0.787378923783E+03   -0.26481E+00   -0.50291E-01  3600   0.761E-01    0.918E+00
DAV:  79    -0.787463647940E+03   -0.84724E-01   -0.37328E-01  3600   0.679E-01    0.912E+00
DAV:  80    -0.787452621127E+03    0.11027E-01   -0.61512E-02  3600   0.263E-01    0.915E+00
DAV:  81    -0.788024187212E+03   -0.57157E+00   -0.61778E-01  3120   0.116E+00    0.863E+00
DAV:  82    -0.787915526980E+03    0.10866E+00   -0.10183E-01  3480   0.626E-01    0.852E+00
DAV:  83    -0.787766450055E+03    0.14908E+00   -0.16734E-01  3480   0.663E-01    0.853E+00
DAV:  84    -0.787625903772E+03    0.14055E+00   -0.40901E-01  3480   0.908E-01    0.852E+00
DAV:  85    -0.787327563820E+03    0.29834E+00   -0.46491E-01  4080   0.103E+00    0.873E+00
DAV:  86    -0.788891252295E+03   -0.15637E+01   -0.38768E+00  3360   0.395E+00    0.794E+00
DAV:  87    -0.789129797236E+03   -0.23854E+00   -0.81744E-01  3720   0.151E+00    0.734E+00
DAV:  88    -0.789058054597E+03    0.71743E-01   -0.80329E-01  3480   0.136E+00    0.700E+00
DAV:  89    -0.789060644174E+03   -0.25896E-02   -0.10295E+00  3240   0.153E+00    0.697E+00
DAV:  90    -0.788996688063E+03    0.63956E-01   -0.11040E+00  3360   0.127E+00    0.719E+00
DAV:  91    -0.789206248558E+03   -0.20956E+00   -0.24935E+00  3360   0.228E+00    0.678E+00
DAV:  92    -0.789784684595E+03   -0.57844E+00   -0.29387E-01  3600   0.944E-01    0.631E+00
DAV:  93    -0.790185537292E+03   -0.40085E+00   -0.26072E-01  3480   0.758E-01    0.566E+00
DAV:  94    -0.790486397096E+03   -0.30086E+00   -0.21017E-01  3600   0.674E-01    0.510E+00
DAV:  95    -0.790640763673E+03   -0.15437E+00   -0.31922E-01  3720   0.859E-01    0.452E+00
DAV:  96    -0.790182957267E+03    0.45781E+00   -0.21083E+00  3360   0.218E+00    0.432E+00
DAV:  97    -0.790060612355E+03    0.12234E+00   -0.32286E-01  3720   0.813E-01    0.433E+00
DAV:  98    -0.789825879407E+03    0.23473E+00   -0.23861E-01  3600   0.599E-01    0.446E+00
DAV:  99    -0.789776645880E+03    0.49234E-01   -0.27701E-02  4440   0.189E-01    0.445E+00
DAV: 100    -0.789758691338E+03    0.17955E-01   -0.55637E-03  3240   0.859E-02    0.445E+00
DAV: 101    -0.789923346304E+03   -0.16465E+00   -0.12606E+00  3120   0.188E+00    0.442E+00
DAV: 102    -0.789920655278E+03    0.26910E-02   -0.60115E-02  3720   0.500E-01    0.452E+00
DAV: 103    -0.789974835463E+03   -0.54180E-01   -0.27941E-02  3720   0.212E-01    0.444E+00
DAV: 104    -0.790111232686E+03   -0.13640E+00   -0.11909E-01  3240   0.451E-01    0.421E+00
DAV: 105    -0.790412070586E+03   -0.30084E+00   -0.94459E-01  3240   0.123E+00    0.365E+00
DAV: 106    -0.790928499346E+03   -0.51643E+00   -0.27528E+00  3240   0.230E+00    0.304E+00
DAV: 107    -0.791230307265E+03   -0.30181E+00   -0.45182E-01  3720   0.150E+00    0.244E+00
DAV: 108    -0.791550716499E+03   -0.32041E+00   -0.94274E-01  3720   0.118E+00    0.208E+00
DAV: 109    -0.791773229115E+03   -0.22251E+00   -0.44760E-01  3240   0.944E-01    0.193E+00
DAV: 110    -0.791844972009E+03   -0.71743E-01   -0.15904E-01  4440   0.469E-01    0.191E+00
DAV: 111    -0.791861604585E+03   -0.16633E-01   -0.18778E-01  3360   0.515E-01    0.176E+00
DAV: 112    -0.791899695309E+03   -0.38091E-01   -0.13338E-01  3360   0.372E-01    0.168E+00
DAV: 113    -0.791941658251E+03   -0.41963E-01   -0.15811E-01  3360   0.374E-01    0.158E+00
DAV: 114    -0.791978706342E+03   -0.37048E-01   -0.27979E-01  3240   0.492E-01    0.147E+00
DAV: 115    -0.792002926424E+03   -0.24220E-01   -0.16670E-01  3360   0.385E-01    0.138E+00
DAV: 116    -0.791849006902E+03    0.15392E+00   -0.51750E+00  3120   0.270E+00    0.104E+00
DAV: 117    -0.791993064322E+03   -0.14406E+00   -0.10550E+00  3600   0.131E+00    0.104E+00
DAV: 118    -0.791987746671E+03    0.53177E-02   -0.26434E-01  3480   0.498E-01    0.576E-01
DAV: 119    -0.792018657288E+03   -0.30911E-01   -0.32723E-02  3840   0.228E-01    0.353E-01
DAV: 120    -0.792029804861E+03   -0.11148E-01   -0.16555E-02  3600   0.155E-01    0.240E-01
DAV: 121    -0.792038603612E+03   -0.87988E-02   -0.86383E-03  3360   0.107E-01    0.162E-01
DAV: 122    -0.792043491998E+03   -0.48884E-02   -0.94575E-03  3480   0.955E-02    0.122E-01
DAV: 123    -0.792046132921E+03   -0.26409E-02   -0.47721E-03  3720   0.625E-02    0.929E-02
DAV: 124    -0.792049227380E+03   -0.30945E-02   -0.56371E-03  3240   0.671E-02    0.781E-02
DAV: 125    -0.792051815257E+03   -0.25879E-02   -0.66456E-03  3360   0.645E-02    0.648E-02
DAV: 126    -0.792054195315E+03   -0.23801E-02   -0.70509E-03  3240   0.671E-02    0.593E-02
DAV: 127    -0.792055883697E+03   -0.16884E-02   -0.56685E-03  3240   0.596E-02    0.531E-02
DAV: 128    -0.792057016904E+03   -0.11332E-02   -0.41855E-03  3240   0.510E-02    0.472E-02
DAV: 129    -0.792057690911E+03   -0.67401E-03   -0.35787E-03  3240   0.472E-02    0.444E-02
DAV: 130    -0.792058205311E+03   -0.51440E-03   -0.24794E-03  3240   0.392E-02    0.378E-02
DAV: 131    -0.792058590247E+03   -0.38494E-03   -0.23502E-03  3480   0.381E-02    0.329E-02
DAV: 132    -0.792059021860E+03   -0.43161E-03   -0.22389E-03  3120   0.364E-02    0.278E-02
DAV: 133    -0.792059348365E+03   -0.32651E-03   -0.20286E-03  3120   0.337E-02    0.246E-02
DAV: 134    -0.792059605882E+03   -0.25752E-03   -0.17991E-03  3000   0.312E-02    0.229E-02
DAV: 135    -0.792059874293E+03   -0.26841E-03   -0.23412E-03  2880   0.353E-02    0.224E-02
DAV: 136    -0.792060139791E+03   -0.26550E-03   -0.27125E-03  3000   0.379E-02    0.219E-02
DAV: 137    -0.792060421561E+03   -0.28177E-03   -0.40517E-03  2880   0.462E-02    0.217E-02
DAV: 138    -0.792060865056E+03   -0.44349E-03   -0.14233E-02  3120   0.866E-02    0.237E-02
DAV: 139    -0.792061513789E+03   -0.64873E-03   -0.43215E-02  3240   0.151E-01    0.308E-02
DAV: 140    -0.792062019482E+03   -0.50569E-03   -0.29926E-03  3000   0.417E-02    0.213E-02
DAV: 141    -0.792062126956E+03   -0.10747E-03   -0.27708E-04  2520   0.135E-02    0.197E-02
DAV: 142    -0.792062037877E+03    0.89080E-04   -0.40775E-04  2520   0.157E-02    0.214E-02
DAV: 143    -0.792062067405E+03   -0.29528E-04   -0.55825E-05  2160   0.614E-03    0.213E-02
DAV: 144    -0.792061849727E+03    0.21768E-03   -0.19003E-03  3000   0.323E-02    0.241E-02
DAV: 145    -0.792062055313E+03   -0.20559E-03   -0.14173E-03  2640   0.284E-02    0.216E-02
DAV: 146    -0.792062568271E+03   -0.51296E-03   -0.22150E-02  3240   0.109E-01    0.244E-02
DAV: 147    -0.792063225046E+03   -0.65678E-03   -0.44277E-02  3240   0.152E-01    0.300E-02
DAV: 148    -0.792063901036E+03   -0.67599E-03   -0.18024E-02  3120   0.974E-02    0.248E-02
DAV: 149    -0.792064286321E+03   -0.38529E-03   -0.36020E-03  2880   0.443E-02    0.183E-02
DAV: 150    -0.792064565464E+03   -0.27914E-03   -0.54772E-03  3000   0.535E-02    0.184E-02
DAV: 151    -0.792064805320E+03   -0.23986E-03   -0.24131E-03  2760   0.360E-02    0.163E-02
DAV: 152    -0.792065196608E+03   -0.39129E-03   -0.69318E-02  3240   0.192E-01    0.380E-02
DAV: 153    -0.792065669985E+03   -0.47338E-03   -0.26395E-04  3360   0.172E-02    0.247E-02
DAV: 154    -0.792065659250E+03    0.10734E-04   -0.78068E-05  2160   0.793E-03    0.236E-02
DAV: 155    -0.792065633186E+03    0.26065E-04   -0.46009E-05  2160   0.559E-03    0.235E-02
DAV: 156    -0.792065565208E+03    0.67978E-04   -0.55551E-04  2640   0.179E-02    0.213E-02
DAV: 157    -0.792065571172E+03   -0.59637E-05   -0.31179E-05  2160   0.502E-03
   1 F= -.79206557E+03 E0= -.79206557E+03  d E =-.527865E-06  mag=     4.0072
