       N       E                     dE             d eps       ncg     rms          rms(c)
DAV:   1     0.134703188374E+05    0.13470E+05   -0.30235E+05  2240   0.125E+03
DAV:   2     0.443228375406E+04   -0.90380E+04   -0.79530E+04  2760   0.341E+02
DAV:   3    -0.218692247037E+03   -0.46510E+04   -0.45197E+04  3160   0.233E+02
DAV:   4    -0.959682841029E+03   -0.74099E+03   -0.73157E+03  3520   0.107E+02
DAV:   5    -0.998634732704E+03   -0.38952E+02   -0.38449E+02  3780   0.333E+01    0.139E+02
DAV:   6    -0.668146701821E+03    0.33049E+03   -0.19769E+03  3000   0.579E+01    0.776E+01
DAV:   7    -0.692405508064E+03   -0.24259E+02   -0.13412E+03  3320   0.941E+01    0.942E+01
DAV:   8    -0.713422728200E+03   -0.21017E+02   -0.28029E+02  3820   0.289E+01    0.620E+01
DAV:   9    -0.668669661962E+03    0.44753E+02   -0.14562E+02  4000   0.210E+01    0.482E+01
DAV:  10    -0.669281679036E+03   -0.61202E+00   -0.18825E+02  3460   0.187E+01    0.346E+01
DAV:  11    -0.667238770391E+03    0.20429E+01   -0.66626E+01  3720   0.113E+01    0.613E+01
DAV:  12    -0.662610910231E+03    0.46279E+01   -0.87916E+01  4360   0.104E+01    0.407E+01
DAV:  13    -0.669266813640E+03   -0.66559E+01   -0.11435E+02  3600   0.126E+01    0.261E+01
DAV:  14    -0.676473573201E+03   -0.72068E+01   -0.24817E+01  3560   0.872E+00    0.205E+01
DAV:  15    -0.699000158493E+03   -0.22527E+02   -0.37236E+01  3620   0.672E+00    0.529E+01
DAV:  16    -0.697494005057E+03    0.15062E+01   -0.17705E+01  3960   0.542E+00    0.172E+01
DAV:  17    -0.711769921086E+03   -0.14276E+02   -0.12520E+01  3560   0.502E+00    0.173E+01
DAV:  18    -0.724326771624E+03   -0.12557E+02   -0.10749E+01  3600   0.437E+00    0.132E+01
DAV:  19    -0.741326941722E+03   -0.17000E+02   -0.87055E+00  3540   0.478E+00    0.111E+01
DAV:  20    -0.760568561362E+03   -0.19242E+02   -0.13026E+01  3400   0.438E+00    0.944E+00
DAV:  21    -0.770993286114E+03   -0.10425E+02   -0.78512E+00  3680   0.298E+00    0.998E+00
DAV:  22    -0.774314044157E+03   -0.33208E+01   -0.34875E+00  3920   0.186E+00    0.110E+01
DAV:  23    -0.776278575745E+03   -0.19645E+01   -0.56830E-01  3860   0.140E+00    0.103E+01
DAV:  24    -0.780323839154E+03   -0.40453E+01   -0.16991E+00  3500   0.250E+00    0.873E+00
DAV:  25    -0.784993269038E+03   -0.46694E+01   -0.30607E+00  3520   0.309E+00    0.700E+00
DAV:  26    -0.787773117098E+03   -0.27798E+01   -0.21917E+00  3540   0.290E+00    0.568E+00
DAV:  27    -0.789630256687E+03   -0.18571E+01   -0.89686E-01  3700   0.169E+00    0.504E+00
DAV:  28    -0.790582677914E+03   -0.95242E+00   -0.34258E-01  4040   0.972E-01    0.456E+00
DAV:  29    -0.791507514198E+03   -0.92484E+00   -0.35557E-01  3860   0.117E+00    0.401E+00
DAV:  30    -0.791881415912E+03   -0.37390E+00   -0.38076E-01  4000   0.120E+00    0.373E+00
DAV:  31    -0.792074724560E+03   -0.19331E+00   -0.12215E+00  4080   0.812E-01    0.104E+01
DAV:  32    -0.791962690658E+03    0.11203E+00   -0.46321E-01  4060   0.514E-01    0.421E+00
DAV:  33    -0.791985545734E+03   -0.22855E-01   -0.92927E-02  3940   0.430E-01    0.294E+00
DAV:  34    -0.792001830269E+03   -0.16285E-01   -0.70251E-02  3800   0.384E-01    0.292E+00
DAV:  35    -0.792016157856E+03   -0.14328E-01   -0.15246E-01  3780   0.556E-01    0.230E+00
DAV:  36    -0.792025243382E+03   -0.90855E-02   -0.20930E-01  3760   0.598E-01    0.198E+00
DAV:  37    -0.792033228446E+03   -0.79851E-02   -0.16437E-01  3900   0.496E-01    0.169E+00
DAV:  38    -0.792036938118E+03   -0.37097E-02   -0.13421E-01  3800   0.459E-01    0.144E+00
DAV:  39    -0.792040345229E+03   -0.34071E-02   -0.18431E-01  3740   0.577E-01    0.117E+00
DAV:  40    -0.792043443328E+03   -0.30981E-02   -0.96628E-02  3920   0.426E-01    0.959E-01
DAV:  41    -0.792045681128E+03   -0.22378E-02   -0.82116E-02  3840   0.361E-01    0.785E-01
DAV:  42    -0.792044839269E+03    0.84186E-03   -0.43074E-02  4020   0.281E-01    0.652E-01
DAV:  43    -0.792045051935E+03   -0.21267E-03   -0.82026E-03  4220   0.134E-01    0.602E-01
DAV:  44    -0.792043541796E+03    0.15101E-02   -0.84396E-03  3800   0.134E-01    0.545E-01
DAV:  45    -0.792043398538E+03    0.14326E-03   -0.31243E-03  3760   0.101E-01    0.522E-01
DAV:  46    -0.792042656520E+03    0.74202E-03   -0.33169E-03  3740   0.930E-02    0.506E-01
DAV:  47    -0.792041928361E+03    0.72816E-03   -0.22811E-03  3700   0.786E-02    0.494E-01
DAV:  48    -0.792041480442E+03    0.44792E-03   -0.12381E-03  3820   0.571E-02    0.494E-01
DAV:  49    -0.792041164559E+03    0.31588E-03   -0.82858E-04  3540   0.450E-02    0.499E-01
DAV:  50    -0.792040747150E+03    0.41741E-03   -0.13850E-03  3540   0.565E-02    0.512E-01
DAV:  51    -0.792039771785E+03    0.97536E-03   -0.69331E-03  3660   0.128E-01    0.549E-01
DAV:  52    -0.792039689310E+03    0.82475E-04   -0.56439E-03  3600   0.897E-02    0.591E-01
DAV:  53    -0.792038850962E+03    0.83835E-03   -0.53226E-03  3600   0.985E-02    0.639E-01
DAV:  54    -0.792038276978E+03    0.57398E-03   -0.50041E-03  3540   0.877E-02    0.693E-01
DAV:  55    -0.792038413427E+03   -0.13645E-03   -0.31721E-04  3760   0.235E-02    0.694E-01
DAV:  56    -0.792038414069E+03   -0.64226E-06   -0.20248E-02  3560   0.195E-01    0.811E-01
DAV:  57    -0.792038714486E+03   -0.30042E-03   -0.12555E-03  3280   0.441E-02    0.809E-01
DAV:  58    -0.792038589657E+03    0.12483E-03   -0.10776E-03  3820   0.411E-02    0.784E-01
DAV:  59    -0.792038777915E+03   -0.18826E-03   -0.32431E-03  3420   0.697E-02    0.729E-01
DAV:  60    -0.792038913808E+03   -0.13589E-03   -0.47481E-03  3520   0.894E-02    0.665E-01
DAV:  61    -0.792040494863E+03   -0.15811E-02   -0.42463E-02  3580   0.361E-01    0.831E-01
DAV:  62    -0.792041409534E+03   -0.91467E-03   -0.59796E-03  3320   0.110E-01    0.750E-01
DAV:  63    -0.792041360929E+03    0.48605E-04   -0.16882E-03  3580   0.540E-02    0.706E-01
DAV:  64    -0.792041405420E+03   -0.44491E-04   -0.64002E-04  3480   0.358E-02    0.678E-01
DAV:  65    -0.792041673398E+03   -0.26798E-03   -0.35111E-03  3360   0.805E-02    0.605E-01
DAV:  66    -0.792041643893E+03    0.29505E-04   -0.29324E-03  3460   0.640E-02    0.557E-01
DAV:  67    -0.792041831811E+03   -0.18792E-03   -0.23805E-03  3580   0.586E-02    0.510E-01
DAV:  68    -0.792041960053E+03   -0.12824E-03   -0.13649E-03  3560   0.453E-02    0.478E-01
DAV:  69    -0.792042095050E+03   -0.13500E-03   -0.94087E-04  3360   0.385E-02    0.452E-01
DAV:  70    -0.792042230937E+03   -0.13589E-03   -0.17206E-03  3540   0.514E-02    0.417E-01
DAV:  71    -0.792042359458E+03   -0.12852E-03   -0.17526E-03  3500   0.513E-02    0.383E-01
DAV:  72    -0.792042460948E+03   -0.10149E-03   -0.75414E-04  3680   0.314E-02    0.372E-01
DAV:  73    -0.792042535678E+03   -0.74730E-04   -0.28611E-04  3160   0.209E-02    0.362E-01
DAV:  74    -0.792042526974E+03    0.87047E-05   -0.18598E-05  2200   0.735E-03
   1 F= -.79204253E+03 E0= -.79204252E+03  d E =-.574963E-05  mag=     3.9913
