       N       E                     dE             d eps       ncg     rms          rms(c)
DAV:   1     0.134419020474E+05    0.13442E+05   -0.30235E+05  2268   0.125E+03
DAV:   2     0.452330522106E+04   -0.89186E+04   -0.77719E+04  2688   0.342E+02
DAV:   3     0.675511306184E+01   -0.45166E+04   -0.44206E+04  2976   0.235E+02
DAV:   4    -0.917651962832E+03   -0.92441E+03   -0.87916E+03  3384   0.106E+02
DAV:   5    -0.996602660486E+03   -0.78951E+02   -0.77778E+02  3738   0.405E+01    0.139E+02
DAV:   6    -0.665063671008E+03    0.33154E+03   -0.19020E+03  2904   0.577E+01    0.728E+01
DAV:   7    -0.685290808848E+03   -0.20227E+02   -0.11433E+03  3426   0.901E+01    0.869E+01
DAV:   8    -0.700549860077E+03   -0.15259E+02   -0.24711E+02  3954   0.272E+01    0.570E+01
DAV:   9    -0.668231250620E+03    0.32319E+02   -0.14193E+02  3900   0.206E+01    0.725E+01
DAV:  10    -0.664655434762E+03    0.35758E+01   -0.20401E+02  3906   0.176E+01    0.317E+01
DAV:  11    -0.665734968992E+03   -0.10795E+01   -0.56820E+01  3666   0.117E+01    0.574E+01
DAV:  12    -0.661369504067E+03    0.43655E+01   -0.32323E+01  4158   0.926E+00    0.227E+01
DAV:  13    -0.679294622020E+03   -0.17925E+02   -0.45771E+01  3864   0.732E+00    0.783E+01
DAV:  14    -0.670367111245E+03    0.89275E+01   -0.13856E+02  4200   0.141E+01    0.205E+01
DAV:  15    -0.687278248423E+03   -0.16911E+02   -0.52590E+01  3510   0.122E+01    0.169E+01
DAV:  16    -0.707115803696E+03   -0.19838E+02   -0.13200E+01  3360   0.553E+00    0.206E+01
DAV:  17    -0.713135643145E+03   -0.60198E+01   -0.56598E+00  3888   0.356E+00    0.192E+01
DAV:  18    -0.723011073437E+03   -0.98754E+01   -0.39475E+00  3660   0.331E+00    0.180E+01
DAV:  19    -0.742026344260E+03   -0.19015E+02   -0.14062E+01  3198   0.585E+00    0.154E+01
DAV:  20    -0.757701421630E+03   -0.15675E+02   -0.17037E+01  3240   0.722E+00    0.121E+01
DAV:  21    -0.766507678031E+03   -0.88063E+01   -0.79089E+00  3720   0.399E+00    0.114E+01
DAV:  22    -0.768451826180E+03   -0.19441E+01   -0.21861E+00  4140   0.182E+00    0.121E+01
DAV:  23    -0.768334924116E+03    0.11690E+00   -0.25736E-01  4110   0.672E-01    0.118E+01
DAV:  24    -0.768288434885E+03    0.46489E-01   -0.54806E-02  4452   0.309E-01    0.121E+01
DAV:  25    -0.769718014473E+03   -0.14296E+01   -0.40275E+00  3804   0.854E-01    0.110E+01
DAV:  26    -0.771029550526E+03   -0.13115E+01   -0.20527E+00  3864   0.786E-01    0.186E+01
DAV:  27    -0.770962702942E+03    0.66848E-01   -0.10384E-01  3624   0.490E-01    0.176E+01
DAV:  28    -0.771214886375E+03   -0.25218E+00   -0.31514E-01  4266   0.429E-01    0.156E+01
DAV:  29    -0.771235856348E+03   -0.20970E-01   -0.37595E-02  3510   0.228E-01    0.155E+01
DAV:  30    -0.771231690973E+03    0.41654E-02   -0.45455E-03  3990   0.905E-02    0.157E+01
DAV:  31    -0.771464704874E+03   -0.23301E+00   -0.19451E-01  4242   0.247E-01    0.182E+01
DAV:  32    -0.771525810489E+03   -0.61106E-01   -0.75918E-02  3654   0.233E-01    0.187E+01
DAV:  33    -0.771531140641E+03   -0.53302E-02   -0.14797E-02  3348   0.123E-01    0.187E+01
DAV:  34    -0.771543263783E+03   -0.12123E-01   -0.24651E-02  3714   0.860E-02    0.187E+01
DAV:  35    -0.771643365139E+03   -0.10010E+00   -0.14547E-01  4008   0.249E-01    0.189E+01
DAV:  36    -0.771780243904E+03   -0.13688E+00   -0.11330E-01  3930   0.264E-01    0.190E+01
DAV:  37    -0.771923298498E+03   -0.14305E+00   -0.13326E-02  3978   0.223E-01    0.191E+01
DAV:  38    -0.772275368106E+03   -0.35207E+00   -0.95051E-02  4014   0.478E-01    0.195E+01
DAV:  39    -0.772330983460E+03   -0.55615E-01   -0.17728E-02  3336   0.265E-01    0.196E+01
DAV:  40    -0.772348637875E+03   -0.17654E-01   -0.96942E-03  3816   0.137E-01    0.196E+01
DAV:  41    -0.772414308134E+03   -0.65670E-01   -0.45658E-03  3948   0.149E-01    0.196E+01
DAV:  42    -0.772601349716E+03   -0.18704E+00   -0.20997E-01  4032   0.351E-01    0.196E+01
DAV:  43    -0.772685295220E+03   -0.83946E-01   -0.41204E-02  3702   0.193E-01    0.196E+01
DAV:  44    -0.772676040878E+03    0.92543E-02   -0.32443E-03  3138   0.820E-02    0.196E+01
DAV:  45    -0.772691233092E+03   -0.15192E-01   -0.40141E-03  3630   0.129E-01    0.196E+01
DAV:  46    -0.772691598751E+03   -0.36566E-03   -0.82688E-04  3228   0.610E-02    0.196E+01
DAV:  47    -0.772690653980E+03    0.94477E-03   -0.13790E-04  2850   0.190E-02    0.196E+01
DAV:  48    -0.772700753163E+03   -0.10099E-01   -0.51031E-04  3558   0.462E-02    0.196E+01
DAV:  49    -0.772744628882E+03   -0.43876E-01   -0.32715E-03  3522   0.130E-01    0.197E+01
DAV:  50    -0.772749396142E+03   -0.47673E-02   -0.16017E-03  3534   0.970E-02    0.196E+01
DAV:  51    -0.765645899350E+03    0.71035E+01   -0.12370E+01  3288   0.458E+00    0.153E+01
DAV:  52    -0.770933184358E+03   -0.52873E+01   -0.41881E+00  3672   0.286E+00    0.167E+01
DAV:  53    -0.775325709711E+03   -0.43925E+01   -0.32685E+00  3654   0.278E+00    0.150E+01
DAV:  54    -0.777695630925E+03   -0.23699E+01   -0.41783E+00  3534   0.419E+00    0.840E+00
DAV:  55    -0.780244922924E+03   -0.25493E+01   -0.18287E+00  3624   0.205E+00    0.792E+00
DAV:  56    -0.783843636733E+03   -0.35987E+01   -0.55406E+00  3768   0.475E+00    0.302E+01
DAV:  57    -0.780503534011E+03    0.33401E+01   -0.98715E+00  3870   0.525E+00    0.630E+00
DAV:  58    -0.784488428712E+03   -0.39849E+01   -0.33859E+00  3492   0.232E+00    0.610E+00
DAV:  59    -0.785912007353E+03   -0.14236E+01   -0.10940E+00  3618   0.154E+00    0.628E+00
DAV:  60    -0.786753931217E+03   -0.84192E+00   -0.81298E-01  3594   0.932E-01    0.630E+00
DAV:  61    -0.786894847259E+03   -0.14092E+00   -0.43348E+00  3660   0.241E+00    0.532E+00
DAV:  62    -0.787450509456E+03   -0.55566E+00   -0.13154E+00  3582   0.108E+00    0.474E+00
DAV:  63    -0.788134373419E+03   -0.68386E+00   -0.18720E+00  3648   0.875E-01    0.897E+00
DAV:  64    -0.788111294788E+03    0.23079E-01   -0.27761E-01  3666   0.394E-01    0.583E+00
DAV:  65    -0.788495286592E+03   -0.38399E+00   -0.66871E-01  3660   0.755E-01    0.500E+00
DAV:  66    -0.788333873489E+03    0.16141E+00   -0.22011E+00  3696   0.142E+00    0.421E+00
DAV:  67    -0.788625689284E+03   -0.29182E+00   -0.57594E-01  3552   0.815E-01    0.423E+00
DAV:  68    -0.788919050137E+03   -0.29336E+00   -0.42498E-01  3630   0.678E-01    0.432E+00
DAV:  69    -0.788969417535E+03   -0.50367E-01   -0.46817E-01  3744   0.672E-01    0.440E+00
DAV:  70    -0.789045438898E+03   -0.76021E-01   -0.28071E-01  3828   0.461E-01    0.443E+00
DAV:  71    -0.789102265549E+03   -0.56827E-01   -0.36293E-01  3642   0.562E-01    0.453E+00
DAV:  72    -0.789137790802E+03   -0.35525E-01   -0.80743E-02  3630   0.306E-01    0.460E+00
DAV:  73    -0.789078914322E+03    0.58876E-01   -0.10856E-01  3894   0.282E-01    0.465E+00
DAV:  74    -0.788992915621E+03    0.85999E-01   -0.18038E-01  3798   0.330E-01    0.476E+00
DAV:  75    -0.788787776102E+03    0.20514E+00   -0.29223E-01  3600   0.482E-01    0.493E+00
DAV:  76    -0.788775174970E+03    0.12601E-01   -0.16473E+00  3714   0.153E+00    0.459E+00
DAV:  77    -0.788823743364E+03   -0.48568E-01   -0.55800E-01  3582   0.785E-01    0.480E+00
DAV:  78    -0.788910531829E+03   -0.86788E-01   -0.32928E-01  3678   0.513E-01    0.490E+00
DAV:  79    -0.789008348488E+03   -0.97817E-01   -0.38240E-01  3666   0.577E-01    0.499E+00
DAV:  80    -0.789115618190E+03   -0.10727E+00   -0.49274E-01  3684   0.742E-01    0.509E+00
DAV:  81    -0.789249615703E+03   -0.13400E+00   -0.17306E+00  3564   0.215E+00    0.367E+00
DAV:  82    -0.789458303070E+03   -0.20869E+00   -0.10775E+00  3534   0.105E+00    0.442E+00
DAV:  83    -0.789749744026E+03   -0.29144E+00   -0.15432E+00  3756   0.488E-01    0.105E+01
DAV:  84    -0.789685862610E+03    0.63881E-01   -0.25641E-01  3726   0.564E-01    0.853E+00
DAV:  85    -0.789700770944E+03   -0.14908E-01   -0.32180E-01  3858   0.454E-01    0.829E+00
DAV:  86    -0.789274973970E+03    0.42580E+00   -0.43125E-01  3612   0.759E-01    0.465E+00
DAV:  87    -0.789452104055E+03   -0.17713E+00   -0.30932E-01  3630   0.585E-01    0.357E+00
DAV:  88    -0.789846105605E+03   -0.39400E+00   -0.79199E-01  3558   0.116E+00    0.104E+01
DAV:  89    -0.789819652186E+03    0.26453E-01   -0.16071E-01  3186   0.468E-01    0.101E+01
DAV:  90    -0.789823887282E+03   -0.42351E-02   -0.16099E-02  3972   0.149E-01    0.101E+01
DAV:  91    -0.789274027258E+03    0.54986E+00   -0.13314E+00  3840   0.288E+00    0.262E+00
DAV:  92    -0.790029886319E+03   -0.75586E+00   -0.47694E-01  3738   0.976E-01    0.863E+00
DAV:  93    -0.790189628779E+03   -0.15974E+00   -0.18172E-01  3690   0.440E-01    0.112E+01
DAV:  94    -0.790259981861E+03   -0.70353E-01   -0.88304E-02  3888   0.383E-01    0.115E+01
DAV:  95    -0.790264553030E+03   -0.45712E-02   -0.18948E-02  3582   0.134E-01    0.115E+01
DAV:  96    -0.790002371504E+03    0.26218E+00   -0.13728E-01  3756   0.448E-01    0.114E+01
DAV:  97    -0.790108619280E+03   -0.10625E+00   -0.30395E-02  3828   0.351E-01    0.115E+01
DAV:  98    -0.790202961585E+03   -0.94342E-01   -0.11411E-01  3918   0.323E-01    0.116E+01
DAV:  99    -0.790237558078E+03   -0.34596E-01   -0.24790E-02  3876   0.242E-01    0.117E+01
DAV: 100    -0.790361992346E+03   -0.12443E+00   -0.75327E-02  3738   0.316E-01    0.118E+01
DAV: 101    -0.790491151318E+03   -0.12916E+00   -0.10693E+00  3870   0.135E+00    0.116E+01
DAV: 102    -0.790410572960E+03    0.80578E-01   -0.12943E-01  3726   0.514E-01    0.115E+01
DAV: 103    -0.790683553813E+03   -0.27298E+00   -0.43566E-01  4098   0.866E-01    0.122E+01
DAV: 104    -0.790783271989E+03   -0.99718E-01   -0.13876E+00  4002   0.623E-01    0.151E+01
DAV: 105    -0.790723862247E+03    0.59410E-01   -0.32705E-02  3168   0.300E-01    0.151E+01
DAV: 106    -0.790552426954E+03    0.17144E+00   -0.20729E-01  4110   0.462E-01    0.135E+01
DAV: 107    -0.790575870360E+03   -0.23443E-01   -0.53924E-02  3762   0.185E-01    0.141E+01
DAV: 108    -0.790684960189E+03   -0.10909E+00   -0.52994E-01  3954   0.399E-01    0.150E+01
DAV: 109    -0.790674299911E+03    0.10660E-01   -0.16860E-02  3408   0.128E-01    0.150E+01
DAV: 110    -0.790702141861E+03   -0.27842E-01   -0.29193E-02  3996   0.249E-01    0.151E+01
DAV: 111    -0.790763173740E+03   -0.61032E-01   -0.29243E-02  4062   0.174E-01    0.151E+01
DAV: 112    -0.790765303767E+03   -0.21300E-02   -0.16101E-03  2910   0.586E-02    0.151E+01
DAV: 113    -0.790729879718E+03    0.35424E-01   -0.95213E-03  3966   0.127E-01    0.150E+01
DAV: 114    -0.790726865027E+03    0.30147E-02   -0.10056E-03  3456   0.456E-02    0.150E+01
DAV: 115    -0.790714084173E+03    0.12781E-01   -0.12574E-03  3360   0.490E-02    0.150E+01
DAV: 116    -0.790698472474E+03    0.15612E-01   -0.17404E-02  3846   0.156E-01    0.150E+01
DAV: 117    -0.790682060349E+03    0.16412E-01   -0.37482E-03  3648   0.727E-02    0.149E+01
DAV: 118    -0.790680670494E+03    0.13899E-02   -0.31333E-04  3102   0.393E-02    0.149E+01
DAV: 119    -0.790686840688E+03   -0.61702E-02   -0.48308E-04  3162   0.422E-02    0.149E+01
DAV: 120    -0.790704344981E+03   -0.17504E-01   -0.58269E-03  3948   0.122E-01    0.149E+01
DAV: 121    -0.790798772753E+03   -0.94428E-01   -0.12088E-01  4026   0.408E-01    0.151E+01
DAV: 122    -0.790872225748E+03   -0.73453E-01   -0.18763E-02  3780   0.183E-01    0.152E+01
DAV: 123    -0.790950782722E+03   -0.78557E-01   -0.12579E-02  3582   0.125E-01    0.152E+01
DAV: 124    -0.790950008712E+03    0.77401E-03   -0.94512E-04  3012   0.562E-02    0.152E+01
DAV: 125    -0.790994184131E+03   -0.44175E-01   -0.12104E-02  3870   0.114E-01    0.152E+01
DAV: 126    -0.790487125178E+03    0.50706E+00   -0.44852E-01  3876   0.630E-01    0.138E+01
DAV: 127    -0.790458891678E+03    0.28233E-01   -0.13351E-01  3762   0.334E-01    0.143E+01
DAV: 128    -0.790474413153E+03   -0.15521E-01   -0.89152E-03  3180   0.132E-01    0.143E+01
DAV: 129    -0.790506730639E+03   -0.32317E-01   -0.55050E-03  3738   0.734E-02    0.144E+01
DAV: 130    -0.790511104926E+03   -0.43743E-02   -0.72711E-03  3942   0.986E-02    0.143E+01
DAV: 131    -0.789707176403E+03    0.80393E+00   -0.65445E+00  3870   0.163E+00    0.108E+01
DAV: 132    -0.789700660339E+03    0.65161E-02   -0.27741E-01  4038   0.768E-01    0.540E+00
DAV: 133    -0.790020136676E+03   -0.31948E+00   -0.66920E-01  4014   0.823E-01    0.217E+00
DAV: 134    -0.790480192333E+03   -0.46006E+00   -0.11704E+00  3660   0.828E-01    0.830E+00
DAV: 135    -0.790482611901E+03   -0.24196E-02   -0.72033E-02  3258   0.330E-01    0.840E+00
DAV: 136    -0.790554759156E+03   -0.72147E-01   -0.92506E-02  3918   0.281E-01    0.829E+00
DAV: 137    -0.790565431633E+03   -0.10672E-01   -0.53997E-02  3906   0.195E-01    0.812E+00
DAV: 138    -0.790561080149E+03    0.43515E-02   -0.21070E-01  4134   0.395E-01    0.848E+00
DAV: 139    -0.790530907476E+03    0.30173E-01   -0.84237E-03  3516   0.125E-01    0.846E+00
DAV: 140    -0.790530700693E+03    0.20678E-03   -0.19541E-03  2946   0.414E-02    0.849E+00
DAV: 141    -0.790499328800E+03    0.31372E-01   -0.55561E-03  4008   0.103E-01    0.899E+00
DAV: 142    -0.790449379626E+03    0.49949E-01   -0.31922E-02  4044   0.220E-01    0.906E+00
DAV: 143    -0.790425335743E+03    0.24044E-01   -0.57605E-02  3960   0.214E-01    0.924E+00
DAV: 144    -0.790442934876E+03   -0.17599E-01   -0.21140E-02  3966   0.163E-01    0.891E+00
DAV: 145    -0.790470532632E+03   -0.27598E-01   -0.47172E-02  3774   0.211E-01    0.773E+00
DAV: 146    -0.790329050549E+03    0.14148E+00   -0.13166E-01  4044   0.365E-01    0.444E+00
DAV: 147    -0.790418457638E+03   -0.89407E-01   -0.14028E-01  3900   0.434E-01    0.838E+00
DAV: 148    -0.790411753760E+03    0.67039E-02   -0.13973E-02  3138   0.179E-01    0.833E+00
DAV: 149    -0.790395433338E+03    0.16320E-01   -0.22739E-03  3846   0.754E-02    0.845E+00
DAV: 150    -0.790382893968E+03    0.12539E-01   -0.55975E-03  3906   0.750E-02    0.878E+00
DAV: 151    -0.790417451816E+03   -0.34558E-01   -0.37357E-02  4080   0.304E-01    0.992E+00
DAV: 152    -0.790442396733E+03   -0.24945E-01   -0.31063E-02  3300   0.242E-01    0.894E+00
DAV: 153    -0.790434394967E+03    0.80018E-02   -0.31547E-03  3360   0.908E-02    0.896E+00
DAV: 154    -0.790431928359E+03    0.24666E-02   -0.25110E-03  3444   0.698E-02    0.896E+00
DAV: 155    -0.790426980567E+03    0.49478E-02   -0.15769E-03  3342   0.357E-02    0.901E+00
DAV: 156    -0.790383159423E+03    0.43821E-01   -0.73668E-01  3942   0.605E-01    0.102E+01
DAV: 157    -0.790390997105E+03   -0.78377E-02   -0.12733E-02  3462   0.174E-01    0.102E+01
DAV: 158    -0.790364830686E+03    0.26166E-01   -0.94889E-03  3888   0.104E-01    0.980E+00
DAV: 159    -0.790386941707E+03   -0.22111E-01   -0.16411E-02  3888   0.123E-01    0.102E+01
DAV: 160    -0.790388825930E+03   -0.18842E-02   -0.38348E-02  3996   0.160E-01    0.991E+00
DAV: 161    -0.790411251367E+03   -0.22425E-01   -0.23809E-02  4032   0.267E-01    0.758E+00
DAV: 162    -0.790418410754E+03   -0.71594E-02   -0.69103E-02  3882   0.290E-01    0.607E+00
DAV: 163    -0.790541685415E+03   -0.12327E+00   -0.98156E-02  3858   0.366E-01    0.515E+00
DAV: 164    -0.790627227731E+03   -0.85542E-01   -0.14233E-01  3726   0.282E-01    0.786E+00
DAV: 165    -0.790663446724E+03   -0.36219E-01   -0.21081E-02  3282   0.234E-01    0.781E+00
DAV: 166    -0.790594239615E+03    0.69207E-01   -0.30211E-01  4122   0.246E-01    0.257E+00
DAV: 167    -0.790781335025E+03   -0.18710E+00   -0.11552E-01  3768   0.352E-01    0.241E+00
DAV: 168    -0.790921530314E+03   -0.14020E+00   -0.49767E-01  3936   0.376E-01    0.841E+00
DAV: 169    -0.790948064173E+03   -0.26534E-01   -0.42290E-02  3414   0.285E-01    0.812E+00
DAV: 170    -0.790997595653E+03   -0.49531E-01   -0.22020E-02  3924   0.171E-01    0.874E+00
DAV: 171    -0.790944332553E+03    0.53263E-01   -0.10508E-01  3978   0.364E-01    0.858E+00
DAV: 172    -0.790972609249E+03   -0.28277E-01   -0.19926E-02  3480   0.141E-01    0.964E+00
DAV: 173    -0.790977775742E+03   -0.51665E-02   -0.40336E-03  3426   0.984E-02    0.965E+00
DAV: 174    -0.790967325187E+03    0.10451E-01   -0.28700E-03  3516   0.615E-02    0.947E+00
DAV: 175    -0.790972588818E+03   -0.52636E-02   -0.47474E-04  2910   0.364E-02    0.950E+00
DAV: 176    -0.790915675994E+03    0.56913E-01   -0.75819E-02  3984   0.241E-01    0.912E+00
DAV: 177    -0.790921434529E+03   -0.57585E-02   -0.23548E-03  3342   0.646E-02    0.916E+00
DAV: 178    -0.790905934352E+03    0.15500E-01   -0.53911E-03  4056   0.101E-01    0.901E+00
DAV: 179    -0.790893569777E+03    0.12365E-01   -0.42031E-03  3870   0.629E-02    0.839E+00
DAV: 180    -0.790939685452E+03   -0.46116E-01   -0.37203E-02  3972   0.220E-01    0.740E+00
DAV: 181    -0.791020598696E+03   -0.80913E-01   -0.36025E-02  3786   0.226E-01    0.933E+00
DAV: 182    -0.791011648242E+03    0.89505E-02   -0.75843E-03  3054   0.106E-01    0.940E+00
DAV: 183    -0.791025347264E+03   -0.13699E-01   -0.64359E-03  4098   0.875E-02    0.973E+00
DAV: 184    -0.791003285813E+03    0.22061E-01   -0.30767E-02  4122   0.138E-01    0.845E+00
DAV: 185    -0.791061894753E+03   -0.58609E-01   -0.79146E-02  4056   0.281E-01    0.840E+00
DAV: 186    -0.791102424923E+03   -0.40530E-01   -0.14767E-02  3708   0.227E-01    0.864E+00
DAV: 187    -0.791101595775E+03    0.82915E-03   -0.12011E-02  3780   0.133E-01    0.876E+00
DAV: 188    -0.791101522841E+03    0.72934E-04   -0.55708E-03  3246   0.106E-01    0.902E+00
DAV: 189    -0.791102312761E+03   -0.78992E-03   -0.13795E-03  3060   0.627E-02    0.900E+00
DAV: 190    -0.791112902139E+03   -0.10589E-01   -0.10244E-02  3816   0.810E-02    0.910E+00
DAV: 191    -0.791138647097E+03   -0.25745E-01   -0.83771E-02  4176   0.323E-01    0.885E+00
DAV: 192    -0.791185522553E+03   -0.46875E-01   -0.27094E-02  3852   0.194E-01    0.973E+00
DAV: 193    -0.791167711667E+03    0.17811E-01   -0.53137E-03  3426   0.111E-01    0.973E+00
DAV: 194    -0.791166244718E+03    0.14669E-02   -0.71585E-04  2934   0.457E-02    0.961E+00
DAV: 195    -0.791167221011E+03   -0.97629E-03   -0.19230E-04  2700   0.195E-02    0.957E+00
DAV: 196    -0.791079889079E+03    0.87332E-01   -0.35609E-01  4056   0.383E-01    0.109E+01
DAV: 197    -0.791030638995E+03    0.49250E-01   -0.17810E-02  3684   0.173E-01    0.105E+01
DAV: 198    -0.791041917041E+03   -0.11278E-01   -0.11189E-02  3840   0.110E-01    0.103E+01
DAV: 199    -0.791040960641E+03    0.95640E-03   -0.64114E-03  3672   0.763E-02    0.100E+01
DAV: 200    -0.791043877584E+03   -0.29169E-02   -0.63892E-04  2784   0.451E-02    0.100E+01
DAV: 201    -0.791009312248E+03    0.34565E-01   -0.62378E-02  3912   0.307E-01    0.906E+00
DAV: 202    -0.790977770923E+03    0.31541E-01   -0.30938E-02  4020   0.217E-01    0.320E+00
DAV: 203    -0.791078507307E+03   -0.10074E+00   -0.10489E-01  3822   0.310E-01    0.220E+00
DAV: 204    -0.791157992510E+03   -0.79485E-01   -0.10629E-01  3666   0.248E-01    0.607E+00
DAV: 205    -0.791147153901E+03    0.10839E-01   -0.10938E-02  3168   0.166E-01    0.567E+00
DAV: 206    -0.791131276693E+03    0.15877E-01   -0.15338E-01  4170   0.191E-01    0.211E+00
DAV: 207    -0.791156624990E+03   -0.25348E-01   -0.63638E-02  3966   0.204E-01    0.143E+00
DAV: 208    -0.791171131686E+03   -0.14507E-01   -0.20591E-02  3846   0.215E-01    0.144E+00
DAV: 209    -0.791191298143E+03   -0.20166E-01   -0.58028E-02  3720   0.266E-01    0.161E+00
DAV: 210    -0.791191975528E+03   -0.67738E-03   -0.18706E-02  3366   0.156E-01    0.167E+00
DAV: 211    -0.791183092489E+03    0.88830E-02   -0.41294E-02  4050   0.282E-01    0.159E+00
DAV: 212    -0.791186999072E+03   -0.39066E-02   -0.94836E-03  3336   0.945E-02    0.203E+00
DAV: 213    -0.791189780942E+03   -0.27819E-02   -0.12586E-03  3084   0.567E-02    0.223E+00
DAV: 214    -0.791191370416E+03   -0.15895E-02   -0.19350E-03  3546   0.510E-02    0.253E+00
DAV: 215    -0.791188994754E+03    0.23757E-02   -0.13312E-03  3588   0.648E-02    0.266E+00
DAV: 216    -0.791179133715E+03    0.98610E-02   -0.10624E-02  4038   0.942E-02    0.183E+00
DAV: 217    -0.791181825444E+03   -0.26917E-02   -0.47470E-03  3888   0.935E-02    0.240E+00
DAV: 218    -0.791181302122E+03    0.52332E-03   -0.24690E-03  3246   0.476E-02    0.221E+00
DAV: 219    -0.791191978531E+03   -0.10676E-01   -0.47808E-03  3966   0.714E-02    0.334E+00
DAV: 220    -0.791179487797E+03    0.12491E-01   -0.22056E-03  4044   0.113E-01    0.342E+00
DAV: 221    -0.791156853144E+03    0.22635E-01   -0.23576E-02  3990   0.188E-01    0.435E+00
DAV: 222    -0.791138613909E+03    0.18239E-01   -0.55763E-03  3630   0.102E-01    0.278E+00
DAV: 223    -0.791152374125E+03   -0.13760E-01   -0.65345E-02  4032   0.142E-01    0.594E+00
DAV: 224    -0.791139640938E+03    0.12733E-01   -0.25511E-03  2940   0.773E-02    0.588E+00
DAV: 225    -0.791136918398E+03    0.27225E-02   -0.13134E-03  3516   0.401E-02    0.570E+00
DAV: 226    -0.791118464544E+03    0.18454E-01   -0.19034E-01  4002   0.254E-01    0.124E+00
DAV: 227    -0.791148099110E+03   -0.29635E-01   -0.67167E-02  3558   0.193E-01    0.436E+00
DAV: 228    -0.791138714090E+03    0.93850E-02   -0.27642E-03  3174   0.853E-02    0.420E+00
DAV: 229    -0.791143436033E+03   -0.47219E-02   -0.65232E-03  3744   0.589E-02    0.518E+00
DAV: 230    -0.791141066293E+03    0.23697E-02   -0.38755E-03  4080   0.117E-01    0.560E+00
DAV: 231    -0.791163044740E+03   -0.21978E-01   -0.13743E-02  4110   0.137E-01    0.734E+00
DAV: 232    -0.791154513953E+03    0.85308E-02   -0.59622E-03  3714   0.115E-01    0.718E+00
DAV: 233    -0.791153150950E+03    0.13630E-02   -0.50048E-04  2826   0.393E-02    0.719E+00
DAV: 234    -0.791152884011E+03    0.26694E-03   -0.86534E-05  2538   0.118E-02    0.719E+00
DAV: 235    -0.791151920347E+03    0.96366E-03   -0.16087E-05  2016   0.908E-03    0.714E+00
DAV: 236    -0.791096354804E+03    0.55566E-01   -0.39595E-01  3984   0.400E-01    0.370E+00
DAV: 237    -0.791111516541E+03   -0.15162E-01   -0.11715E-02  3474   0.150E-01    0.469E+00
DAV: 238    -0.791112765452E+03   -0.12489E-02   -0.18510E-03  3042   0.640E-02    0.436E+00
DAV: 239    -0.791115502757E+03   -0.27373E-02   -0.22390E-04  3138   0.208E-02    0.445E+00
DAV: 240    -0.791108728215E+03    0.67745E-02   -0.21763E-03  3696   0.563E-02    0.376E+00
DAV: 241    -0.791144267994E+03   -0.35540E-01   -0.37285E-02  3960   0.236E-01    0.559E+00
DAV: 242    -0.791159378393E+03   -0.15110E-01   -0.76608E-03  3642   0.130E-01    0.720E+00
DAV: 243    -0.791138177589E+03    0.21201E-01   -0.30703E-03  3558   0.106E-01    0.630E+00
DAV: 244    -0.791132807220E+03    0.53704E-02   -0.29168E-03  3660   0.481E-02    0.527E+00
DAV: 245    -0.791166880520E+03   -0.34073E-01   -0.12353E-02  3870   0.123E-01    0.650E+00
DAV: 246    -0.791194995325E+03   -0.28115E-01   -0.32631E-01  4002   0.486E-01    0.649E+00
DAV: 247    -0.791231280827E+03   -0.36286E-01   -0.37247E-02  3624   0.255E-01    0.813E+00
DAV: 248    -0.791218744576E+03    0.12536E-01   -0.42919E-03  3174   0.112E-01    0.814E+00
DAV: 249    -0.791212226690E+03    0.65179E-02   -0.76003E-04  3648   0.332E-02    0.793E+00
DAV: 250    -0.791222105727E+03   -0.98790E-02   -0.19700E-03  3654   0.523E-02    0.824E+00
DAV: 251    -0.791225735391E+03   -0.36297E-02   -0.45796E-02  4014   0.230E-01    0.862E+00
DAV: 252    -0.791254404381E+03   -0.28669E-01   -0.37289E-03  3930   0.121E-01    0.937E+00
DAV: 253    -0.791259772874E+03   -0.53685E-02   -0.15957E-03  3558   0.702E-02    0.966E+00
DAV: 254    -0.791250042525E+03    0.97303E-02   -0.25077E-03  3756   0.923E-02    0.938E+00
DAV: 255    -0.791216968241E+03    0.33074E-01   -0.13637E-02  3948   0.144E-01    0.756E+00
DAV: 256    -0.791214633011E+03    0.23352E-02   -0.13864E-01  3900   0.248E-01    0.499E+00
DAV: 257    -0.791244795924E+03   -0.30163E-01   -0.18510E-02  3474   0.167E-01    0.466E+00
DAV: 258    -0.791248777845E+03   -0.39819E-02   -0.21312E-03  3174   0.775E-02    0.452E+00
DAV: 259    -0.791238383259E+03    0.10395E-01   -0.19555E-02  3930   0.816E-02    0.340E+00
DAV: 260    -0.791259582187E+03   -0.21199E-01   -0.28469E-02  3720   0.175E-01    0.244E+00
DAV: 261    -0.791268334247E+03   -0.87521E-02   -0.38856E-02  3852   0.170E-01    0.276E+00
DAV: 262    -0.791277530782E+03   -0.91965E-02   -0.38453E-02  3732   0.158E-01    0.200E+00
DAV: 263    -0.791281807105E+03   -0.42763E-02   -0.18919E-03  3150   0.766E-02    0.198E+00
DAV: 264    -0.791282823686E+03   -0.10166E-02   -0.92484E-03  3738   0.541E-02    0.273E+00
DAV: 265    -0.791282964382E+03   -0.14070E-03   -0.29449E-03  3072   0.409E-02    0.323E+00
DAV: 266    -0.791300249630E+03   -0.17285E-01   -0.33385E-02  3936   0.198E-01    0.523E+00
DAV: 267    -0.791285545175E+03    0.14704E-01   -0.21985E-02  3684   0.161E-01    0.292E+00
DAV: 268    -0.791300894268E+03   -0.15349E-01   -0.45650E-02  3714   0.123E-01    0.423E+00
DAV: 269    -0.791296859412E+03    0.40349E-02   -0.37712E-03  3306   0.812E-02    0.413E+00
DAV: 270    -0.791302234210E+03   -0.53748E-02   -0.48422E-03  3990   0.139E-01    0.480E+00
DAV: 271    -0.791318691285E+03   -0.16457E-01   -0.86410E-02  4074   0.153E-01    0.558E+00
DAV: 272    -0.791304990919E+03    0.13700E-01   -0.16200E-02  3294   0.107E-01    0.476E+00
DAV: 273    -0.791315541758E+03   -0.10551E-01   -0.63885E-02  3948   0.942E-02    0.620E+00
DAV: 274    -0.791316348909E+03   -0.80715E-03   -0.20735E-02  3516   0.997E-02    0.640E+00
DAV: 275    -0.791312382366E+03    0.39665E-02   -0.12899E-02  3342   0.563E-02    0.635E+00
DAV: 276    -0.791268955810E+03    0.43427E-01   -0.22867E+00  4002   0.602E-01    0.794E+00
DAV: 277    -0.791254862761E+03    0.14093E-01   -0.18813E-01  3462   0.362E-01    0.522E+00
DAV: 278    -0.791266171831E+03   -0.11309E-01   -0.35182E-03  3114   0.123E-01    0.523E+00
DAV: 279    -0.791264728526E+03    0.14433E-02   -0.52786E-03  3798   0.509E-02    0.468E+00
DAV: 280    -0.791273539938E+03   -0.88114E-02   -0.16759E-02  3876   0.153E-01    0.452E+00
DAV: 281    -0.791312921788E+03   -0.39382E-01   -0.91215E-02  3840   0.251E-01    0.675E+00
DAV: 282    -0.791310164231E+03    0.27576E-02   -0.17155E-02  3264   0.141E-01    0.675E+00
DAV: 283    -0.791323541924E+03   -0.13378E-01   -0.11646E-02  3678   0.900E-02    0.763E+00
DAV: 284    -0.791313342213E+03    0.10200E-01   -0.60827E-02  3834   0.146E-01    0.723E+00
DAV: 285    -0.791324320461E+03   -0.10978E-01   -0.50888E-03  3312   0.703E-02    0.769E+00
DAV: 286    -0.791306065623E+03    0.18255E-01   -0.18755E-02  3936   0.119E-01    0.705E+00
DAV: 287    -0.791308748636E+03   -0.26830E-02   -0.11618E-03  3120   0.416E-02    0.703E+00
DAV: 288    -0.791305837488E+03    0.29111E-02   -0.95906E-04  3330   0.461E-02    0.684E+00
DAV: 289    -0.791316455787E+03   -0.10618E-01   -0.70157E-03  3774   0.494E-02    0.719E+00
DAV: 290    -0.791316422406E+03    0.33381E-04   -0.40441E-04  2766   0.265E-02    0.729E+00
DAV: 291    -0.791381989770E+03   -0.65567E-01   -0.94167E-02  3972   0.208E-01    0.919E+00
DAV: 292    -0.791330469068E+03    0.51521E-01   -0.17118E-02  3798   0.101E-01    0.855E+00
DAV: 293    -0.791330775721E+03   -0.30665E-03   -0.15218E-03  3444   0.530E-02    0.850E+00
DAV: 294    -0.791331668987E+03   -0.89327E-03   -0.13955E-04  2472   0.245E-02    0.852E+00
DAV: 295    -0.791332959817E+03   -0.12908E-02   -0.73155E-03  3582   0.712E-02    0.864E+00
DAV: 296    -0.791317080013E+03    0.15880E-01   -0.42120E-03  3852   0.836E-02    0.845E+00
DAV: 297    -0.791325285809E+03   -0.82058E-02   -0.79132E-03  3480   0.474E-02    0.861E+00
DAV: 298    -0.791322883516E+03    0.24023E-02   -0.45430E-04  2646   0.295E-02    0.853E+00
DAV: 299    -0.791320572823E+03    0.23107E-02   -0.61934E-04  2310   0.184E-02    0.849E+00
DAV: 300    -0.791318046785E+03    0.25260E-02   -0.38425E-04  2238   0.274E-02    0.843E+00
DAV: 301    -0.791288325899E+03    0.29721E-01   -0.23002E-01  4032   0.188E-01    0.735E+00
DAV: 302    -0.791314363301E+03   -0.26037E-01   -0.74746E-03  2826   0.167E-01    0.755E+00
DAV: 303    -0.791305786952E+03    0.85763E-02   -0.38411E-03  3744   0.106E-01    0.735E+00
DAV: 304    -0.791305512916E+03    0.27404E-03   -0.48377E-04  2964   0.352E-02    0.737E+00
DAV: 305    -0.791319647669E+03   -0.14135E-01   -0.61887E-03  3696   0.683E-02    0.800E+00
DAV: 306    -0.791311492814E+03    0.81549E-02   -0.68996E-02  3744   0.105E-01    0.828E+00
DAV: 307    -0.791314533512E+03   -0.30407E-02   -0.95280E-03  3426   0.973E-02    0.855E+00
DAV: 308    -0.791317929098E+03   -0.33956E-02   -0.72282E-03  3450   0.648E-02    0.872E+00
DAV: 309    -0.791307447721E+03    0.10481E-01   -0.26424E-03  3354   0.622E-02    0.861E+00
DAV: 310    -0.791306326918E+03    0.11208E-02   -0.13778E-03  3870   0.765E-02    0.855E+00
DAV: 311    -0.791346874950E+03   -0.40548E-01   -0.21523E-01  3978   0.206E-01    0.887E+00
DAV: 312    -0.791337799944E+03    0.90750E-02   -0.34621E-02  3414   0.184E-01    0.844E+00
DAV: 313    -0.791276445054E+03    0.61355E-01   -0.14736E-01  3888   0.198E-01    0.604E+00
DAV: 314    -0.791263121032E+03    0.13324E-01   -0.69112E-02  3576   0.146E-01    0.322E+00
DAV: 315    -0.791272793602E+03   -0.96726E-02   -0.41947E-02  3642   0.132E-01    0.249E+00
DAV: 316    -0.791290066834E+03   -0.17273E-01   -0.62623E-02  3840   0.155E-01    0.403E+00
DAV: 317    -0.791281007556E+03    0.90593E-02   -0.42740E-03  2892   0.894E-02    0.366E+00
DAV: 318    -0.791276411011E+03    0.45965E-02   -0.58634E-03  3432   0.336E-02    0.298E+00
DAV: 319    -0.791280795161E+03   -0.43842E-02   -0.46960E-03  3834   0.748E-02    0.294E+00
DAV: 320    -0.791278765094E+03    0.20301E-02   -0.51436E-03  3498   0.572E-02    0.242E+00
DAV: 321    -0.791285705960E+03   -0.69409E-02   -0.26503E-01  3948   0.251E-01    0.454E+00
DAV: 322    -0.791273439799E+03    0.12266E-01   -0.19623E-02  3258   0.162E-01    0.301E+00
DAV: 323    -0.791273431343E+03    0.84555E-05   -0.36387E-03  3732   0.849E-02    0.215E+00
DAV: 324    -0.791275940447E+03   -0.25091E-02   -0.11491E-03  3288   0.637E-02    0.208E+00
DAV: 325    -0.791276565537E+03   -0.62509E-03   -0.95727E-04  2988   0.555E-02    0.186E+00
DAV: 326    -0.791278287085E+03   -0.17215E-02   -0.30833E-03  3984   0.861E-02    0.163E+00
DAV: 327    -0.791280412273E+03   -0.21252E-02   -0.17256E-03  3660   0.620E-02    0.183E+00
DAV: 328    -0.791281493143E+03   -0.10809E-02   -0.14265E-03  3426   0.479E-02    0.205E+00
DAV: 329    -0.791280837822E+03    0.65532E-03   -0.12545E-03  3282   0.528E-02    0.269E+00
DAV: 330    -0.791278769868E+03    0.20680E-02   -0.16242E-04  2640   0.241E-02    0.276E+00
DAV: 331    -0.791276736685E+03    0.20332E-02   -0.13277E-03  3564   0.487E-02    0.301E+00
DAV: 332    -0.791272366442E+03    0.43702E-02   -0.20561E-03  3228   0.340E-02    0.223E+00
DAV: 333    -0.791272603109E+03   -0.23667E-03   -0.10466E-03  3096   0.336E-02    0.210E+00
DAV: 334    -0.791273237647E+03   -0.63454E-03   -0.70169E-04  2862   0.244E-02    0.227E+00
DAV: 335    -0.791273414440E+03   -0.17679E-03   -0.12336E-04  2364   0.221E-02    0.234E+00
DAV: 336    -0.791275968464E+03   -0.25540E-02   -0.25471E-03  3732   0.804E-02    0.259E+00
DAV: 337    -0.791275472578E+03    0.49589E-03   -0.67063E-04  3540   0.371E-02    0.276E+00
DAV: 338    -0.791275445003E+03    0.27576E-04   -0.55613E-04  2742   0.342E-02    0.281E+00
DAV: 339    -0.791274675886E+03    0.76912E-03   -0.73556E-04  3042   0.314E-02    0.273E+00
DAV: 340    -0.791275192548E+03   -0.51666E-03   -0.38084E-04  2772   0.254E-02    0.278E+00
DAV: 341    -0.791281832407E+03   -0.66399E-02   -0.83346E-03  4002   0.860E-02    0.346E+00
DAV: 342    -0.791277325940E+03    0.45065E-02   -0.78090E-04  3336   0.486E-02    0.346E+00
DAV: 343    -0.791273640118E+03    0.36858E-02   -0.11008E-03  3078   0.325E-02    0.315E+00
DAV: 344    -0.791269338561E+03    0.43016E-02   -0.81741E-03  3744   0.708E-02    0.300E+00
DAV: 345    -0.791273817210E+03   -0.44786E-02   -0.22646E-03  3612   0.610E-02    0.358E+00
DAV: 346    -0.791267925660E+03    0.58916E-02   -0.28261E-03  3840   0.814E-02    0.339E+00
DAV: 347    -0.791266845863E+03    0.10798E-02   -0.36929E-03  3504   0.601E-02    0.259E+00
DAV: 348    -0.791265907139E+03    0.93872E-03   -0.20548E-03  3834   0.769E-02    0.141E+00
DAV: 349    -0.791267377068E+03   -0.14699E-02   -0.94921E-03  3516   0.941E-02    0.116E+00
DAV: 350    -0.791271182875E+03   -0.38058E-02   -0.67631E-03  3294   0.646E-02    0.185E+00
DAV: 351    -0.791268375671E+03    0.28072E-02   -0.15738E-02  3648   0.798E-02    0.948E-01
DAV: 352    -0.791269974781E+03   -0.15991E-02   -0.53640E-03  3204   0.374E-02    0.165E+00
DAV: 353    -0.791268518249E+03    0.14565E-02   -0.27925E-04  2610   0.270E-02    0.167E+00
DAV: 354    -0.791268116195E+03    0.40205E-03   -0.61502E-05  2256   0.162E-02    0.168E+00
DAV: 355    -0.791267321698E+03    0.79450E-03   -0.15450E-03  2136   0.167E-02    0.139E+00
DAV: 356    -0.791271916951E+03   -0.45953E-02   -0.62905E-02  3966   0.156E-01    0.117E+00
DAV: 357    -0.791271997011E+03   -0.80060E-04   -0.26444E-03  3504   0.841E-02    0.837E-01
DAV: 358    -0.791273187495E+03   -0.11905E-02   -0.35721E-03  3288   0.411E-02    0.973E-01
DAV: 359    -0.791273050419E+03    0.13708E-03   -0.27623E-04  2586   0.231E-02    0.104E+00
DAV: 360    -0.791274157251E+03   -0.11068E-02   -0.23970E-03  2952   0.321E-02    0.114E+00
DAV: 361    -0.791280617780E+03   -0.64605E-02   -0.35269E-02  3540   0.120E-01    0.177E+00
DAV: 362    -0.791284381756E+03   -0.37640E-02   -0.63268E-03  3708   0.938E-02    0.243E+00
DAV: 363    -0.791281140534E+03    0.32412E-02   -0.65740E-04  3036   0.468E-02    0.232E+00
DAV: 364    -0.791280173349E+03    0.96718E-03   -0.42849E-04  2478   0.278E-02    0.220E+00
DAV: 365    -0.791279275362E+03    0.89799E-03   -0.12751E-03  3408   0.353E-02    0.204E+00
DAV: 366    -0.791280459964E+03   -0.11846E-02   -0.62528E-03  3828   0.946E-02    0.215E+00
DAV: 367    -0.791284517109E+03   -0.40571E-02   -0.23179E-03  3684   0.780E-02    0.264E+00
DAV: 368    -0.791283205590E+03    0.13115E-02   -0.33347E-04  2820   0.329E-02    0.259E+00
DAV: 369    -0.791283308504E+03   -0.10291E-03   -0.91726E-05  2268   0.121E-02    0.263E+00
DAV: 370    -0.791282758728E+03    0.54978E-03   -0.67716E-05  2028   0.107E-02    0.248E+00
DAV: 371    -0.791277997904E+03    0.47608E-02   -0.34735E-03  3516   0.472E-02    0.114E+00
DAV: 372    -0.791288518075E+03   -0.10520E-01   -0.70829E-03  3612   0.111E-01    0.228E+00
DAV: 373    -0.791287616094E+03    0.90198E-03   -0.10109E-03  3372   0.441E-02    0.231E+00
DAV: 374    -0.791287148279E+03    0.46781E-03   -0.47856E-04  2820   0.267E-02    0.205E+00
DAV: 375    -0.791287778698E+03   -0.63042E-03   -0.68138E-05  2310   0.163E-02    0.205E+00
DAV: 376    -0.791289296729E+03   -0.15180E-02   -0.17994E-03  3318   0.504E-02    0.284E+00
DAV: 377    -0.791286293848E+03    0.30029E-02   -0.10322E-03  3330   0.472E-02    0.277E+00
DAV: 378    -0.791287078431E+03   -0.78458E-03   -0.16556E-04  2526   0.191E-02    0.294E+00
DAV: 379    -0.791285584211E+03    0.14942E-02   -0.32562E-04  2280   0.234E-02    0.268E+00
DAV: 380    -0.791285991234E+03   -0.40702E-03   -0.17714E-04  2412   0.197E-02    0.258E+00
DAV: 381    -0.791286039630E+03   -0.48396E-04   -0.51296E-04  3468   0.308E-02    0.241E+00
DAV: 382    -0.791286217994E+03   -0.17836E-03   -0.71881E-04  3210   0.323E-02    0.226E+00
DAV: 383    -0.791286551623E+03   -0.33363E-03   -0.83263E-04  2850   0.299E-02    0.198E+00
DAV: 384    -0.791287293203E+03   -0.74158E-03   -0.10304E-03  3216   0.335E-02    0.161E+00
DAV: 385    -0.791288639901E+03   -0.13467E-02   -0.49654E-03  3690   0.736E-02    0.991E-01
DAV: 386    -0.791290334171E+03   -0.16943E-02   -0.19479E-03  3216   0.491E-02    0.839E-01
DAV: 387    -0.791290801781E+03   -0.46761E-03   -0.25282E-04  2514   0.244E-02    0.783E-01
DAV: 388    -0.791291078413E+03   -0.27663E-03   -0.32220E-05  2106   0.133E-02    0.787E-01
DAV: 389    -0.791291034041E+03    0.44372E-04   -0.88471E-06  1914   0.799E-03    0.769E-01
DAV: 390    -0.791290930996E+03    0.10305E-03   -0.53105E-05  1932   0.106E-02    0.753E-01
DAV: 391    -0.791290297967E+03    0.63303E-03   -0.13756E-03  3330   0.488E-02    0.546E-01
DAV: 392    -0.791290645759E+03   -0.34779E-03   -0.39725E-04  2904   0.246E-02    0.578E-01
DAV: 393    -0.791290581009E+03    0.64750E-04   -0.70213E-05  2304   0.137E-02    0.575E-01
DAV: 394    -0.791290305554E+03    0.27546E-03   -0.10303E-04  2196   0.152E-02    0.570E-01
DAV: 395    -0.791290166723E+03    0.13883E-03   -0.68863E-05  2520   0.134E-02    0.562E-01
DAV: 396    -0.791292410982E+03   -0.22443E-02   -0.75721E-03  3606   0.104E-01    0.615E-01
DAV: 397    -0.791291700813E+03    0.71017E-03   -0.86945E-04  3210   0.417E-02    0.497E-01
DAV: 398    -0.791289681280E+03    0.20195E-02   -0.16378E-03  3450   0.474E-02    0.641E-01
DAV: 399    -0.791290670637E+03   -0.98936E-03   -0.47879E-04  2598   0.299E-02    0.564E-01
DAV: 400    -0.791291330463E+03   -0.65983E-03   -0.19783E-04  2208   0.172E-02    0.545E-01
DAV: 401    -0.791331364936E+03   -0.40034E-01   -0.11519E-01  3930   0.348E-01    0.655E+00
DAV: 402    -0.791327041539E+03    0.43234E-02   -0.14271E-02  3012   0.139E-01    0.740E+00
DAV: 403    -0.791304821745E+03    0.22220E-01   -0.97177E-02  3870   0.125E-01    0.580E+00
DAV: 404    -0.791311712636E+03   -0.68909E-02   -0.11693E-03  2814   0.650E-02    0.570E+00
DAV: 405    -0.791312430184E+03   -0.71755E-03   -0.10740E-04  2682   0.232E-02    0.571E+00
DAV: 406    -0.791304949324E+03    0.74809E-02   -0.22502E-02  3912   0.103E-01    0.511E+00
DAV: 407    -0.791302824546E+03    0.21248E-02   -0.10156E-02  3816   0.962E-02    0.424E+00
DAV: 408    -0.791308431078E+03   -0.56065E-02   -0.61716E-04  2766   0.463E-02    0.423E+00
DAV: 409    -0.791310732295E+03   -0.23012E-02   -0.36924E-04  2622   0.196E-02    0.433E+00
DAV: 410    -0.791308325091E+03    0.24072E-02   -0.76053E-03  3210   0.648E-02    0.453E+00
DAV: 411    -0.791320557327E+03   -0.12232E-01   -0.64503E-02  3684   0.691E-02    0.626E+00
DAV: 412    -0.791309226529E+03    0.11331E-01   -0.91806E-03  2952   0.832E-02    0.560E+00
DAV: 413    -0.791308224307E+03    0.10022E-02   -0.33363E-03  3498   0.440E-02    0.547E+00
DAV: 414    -0.791302460897E+03    0.57634E-02   -0.94341E-03  3876   0.842E-02    0.503E+00
DAV: 415    -0.791292592688E+03    0.98682E-02   -0.22552E-02  3828   0.103E-01    0.385E+00
DAV: 416    -0.791293938565E+03   -0.13459E-02   -0.48679E-03  3606   0.757E-02    0.344E+00
DAV: 417    -0.791297806600E+03   -0.38680E-02   -0.62915E-03  3654   0.777E-02    0.375E+00
DAV: 418    -0.791296927402E+03    0.87920E-03   -0.42514E-03  3576   0.727E-02    0.358E+00
DAV: 419    -0.791296637066E+03    0.29034E-03   -0.52888E-04  2850   0.379E-02    0.349E+00
DAV: 420    -0.791294915004E+03    0.17221E-02   -0.10310E-03  2688   0.248E-02    0.334E+00
DAV: 421    -0.791291927205E+03    0.29878E-02   -0.30511E-03  3834   0.869E-02    0.360E+00
DAV: 422    -0.791290807158E+03    0.11200E-02   -0.71974E-04  3102   0.298E-02    0.354E+00
DAV: 423    -0.791291372778E+03   -0.56562E-03   -0.10431E-03  2508   0.301E-02    0.352E+00
DAV: 424    -0.791291338432E+03    0.34345E-04   -0.46922E-05  2364   0.145E-02    0.352E+00
DAV: 425    -0.791291212046E+03    0.12639E-03   -0.68299E-05  1956   0.114E-02    0.353E+00
DAV: 426    -0.791294142406E+03   -0.29304E-02   -0.46600E-02  3918   0.109E-01    0.320E+00
DAV: 427    -0.791292291969E+03    0.18504E-02   -0.12828E-03  3294   0.617E-02    0.299E+00
DAV: 428    -0.791284802677E+03    0.74893E-02   -0.49582E-03  4020   0.116E-01    0.223E+00
DAV: 429    -0.791284058505E+03    0.74417E-03   -0.73758E-03  3816   0.103E-01    0.207E+00
DAV: 430    -0.791284340092E+03   -0.28159E-03   -0.52344E-03  3138   0.676E-02    0.156E+00
DAV: 431    -0.791283879164E+03    0.46093E-03   -0.36283E-03  3606   0.533E-02    0.157E+00
DAV: 432    -0.791282021064E+03    0.18581E-02   -0.67241E-03  3600   0.796E-02    0.200E+00
DAV: 433    -0.791280717310E+03    0.13038E-02   -0.45012E-04  2754   0.328E-02    0.192E+00
DAV: 434    -0.791280235456E+03    0.48185E-03   -0.18658E-04  2340   0.159E-02    0.195E+00
DAV: 435    -0.791278681255E+03    0.15542E-02   -0.37704E-03  3384   0.498E-02    0.153E+00
DAV: 436    -0.791278515722E+03    0.16553E-03   -0.21943E-02  3642   0.105E-01    0.184E+00
DAV: 437    -0.791276263433E+03    0.22523E-02   -0.15645E-02  3498   0.694E-02    0.982E-01
DAV: 438    -0.791277520386E+03   -0.12570E-02   -0.31342E-03  3378   0.582E-02    0.138E+00
DAV: 439    -0.791276102739E+03    0.14176E-02   -0.16034E-03  3426   0.482E-02    0.153E+00
DAV: 440    -0.791275758763E+03    0.34398E-03   -0.23843E-04  2502   0.210E-02    0.146E+00
DAV: 441    -0.791276676242E+03   -0.91748E-03   -0.54576E-04  2448   0.313E-02    0.143E+00
DAV: 442    -0.791276722750E+03   -0.46507E-04   -0.37562E-05  2256   0.119E-02    0.142E+00
DAV: 443    -0.791276654519E+03    0.68230E-04   -0.93426E-05  1962   0.121E-02    0.135E+00
DAV: 444    -0.791276401457E+03    0.25306E-03   -0.26197E-04  2568   0.196E-02    0.128E+00
DAV: 445    -0.791275668087E+03    0.73337E-03   -0.72983E-04  2628   0.186E-02    0.110E+00
DAV: 446    -0.791274282051E+03    0.13860E-02   -0.38545E-03  3504   0.572E-02    0.112E+00
DAV: 447    -0.791274110615E+03    0.17144E-03   -0.36913E-04  3132   0.313E-02    0.103E+00
DAV: 448    -0.791273693010E+03    0.41761E-03   -0.12896E-04  2460   0.181E-02    0.982E-01
DAV: 449    -0.791273516514E+03    0.17650E-03   -0.15340E-04  3042   0.225E-02    0.103E+00
DAV: 450    -0.791273485404E+03    0.31110E-04   -0.24132E-04  2664   0.209E-02    0.109E+00
DAV: 451    -0.791271938464E+03    0.15469E-02   -0.24194E-03  3396   0.606E-02    0.966E-01
DAV: 452    -0.791271676692E+03    0.26177E-03   -0.11694E-04  2694   0.189E-02    0.938E-01
DAV: 453    -0.791271645371E+03    0.31322E-04   -0.22819E-04  2196   0.161E-02    0.105E+00
DAV: 454    -0.791271096598E+03    0.54877E-03   -0.63704E-04  3402   0.351E-02    0.101E+00
DAV: 455    -0.791270595433E+03    0.50117E-03   -0.16114E-03  3690   0.434E-02    0.134E+00
DAV: 456    -0.791270102301E+03    0.49313E-03   -0.33519E-03  3774   0.832E-02    0.101E+00
DAV: 457    -0.791270203451E+03   -0.10115E-03   -0.22552E-03  3576   0.491E-02    0.140E+00
DAV: 458    -0.791269850448E+03    0.35300E-03   -0.11054E-04  2592   0.230E-02    0.140E+00
DAV: 459    -0.791269641730E+03    0.20872E-03   -0.66235E-05  2004   0.987E-03    0.149E+00
DAV: 460    -0.791270019371E+03   -0.37764E-03   -0.11739E-03  2322   0.221E-02    0.177E+00
DAV: 461    -0.791270232776E+03   -0.21340E-03   -0.83826E-03  3744   0.769E-02    0.111E+00
DAV: 462    -0.791269798735E+03    0.43404E-03   -0.97500E-04  3744   0.576E-02    0.143E+00
DAV: 463    -0.791268851768E+03    0.94697E-03   -0.34805E-03  3744   0.571E-02    0.123E+00
DAV: 464    -0.791269390995E+03   -0.53923E-03   -0.26867E-03  3510   0.642E-02    0.176E+00
DAV: 465    -0.791268912686E+03    0.47831E-03   -0.14383E-04  2466   0.229E-02    0.176E+00
DAV: 466    -0.791284118148E+03   -0.15205E-01   -0.53575E-02  3906   0.260E-01    0.292E+00
DAV: 467    -0.791276290690E+03    0.78275E-02   -0.80101E-03  3402   0.126E-01    0.208E+00
DAV: 468    -0.791274092666E+03    0.21980E-02   -0.11140E-02  3822   0.699E-02    0.144E+00
DAV: 469    -0.791273531708E+03    0.56096E-03   -0.76245E-03  3558   0.859E-02    0.176E+00
DAV: 470    -0.791273376161E+03    0.15555E-03   -0.43439E-04  2964   0.374E-02    0.183E+00
DAV: 471    -0.791268744690E+03    0.46315E-02   -0.11773E-02  3882   0.701E-02    0.178E+00
DAV: 472    -0.791270059342E+03   -0.13147E-02   -0.51906E-04  3090   0.416E-02    0.170E+00
DAV: 473    -0.791270199036E+03   -0.13969E-03   -0.12040E-02  3744   0.774E-02    0.175E+00
DAV: 474    -0.791270903335E+03   -0.70430E-03   -0.71989E-03  3456   0.460E-02    0.190E+00
DAV: 475    -0.791270184924E+03    0.71841E-03   -0.28223E-04  2718   0.303E-02    0.192E+00
DAV: 476    -0.791269469335E+03    0.71559E-03   -0.38280E-02  3792   0.101E-01    0.154E+00
DAV: 477    -0.791272053694E+03   -0.25844E-02   -0.63845E-04  3588   0.590E-02    0.141E+00
DAV: 478    -0.791272645325E+03   -0.59163E-03   -0.12719E-04  2628   0.244E-02    0.141E+00
DAV: 479    -0.791272833311E+03   -0.18799E-03   -0.41355E-05  2208   0.110E-02    0.143E+00
DAV: 480    -0.791273159548E+03   -0.32624E-03   -0.26344E-04  2238   0.178E-02    0.160E+00
DAV: 481    -0.791272215627E+03    0.94392E-03   -0.54210E-03  3948   0.107E-01    0.614E-01
DAV: 482    -0.791275313663E+03   -0.30980E-02   -0.13469E-02  3786   0.770E-02    0.117E+00
DAV: 483    -0.791274748982E+03    0.56468E-03   -0.31920E-04  2904   0.339E-02    0.120E+00
DAV: 484    -0.791273157931E+03    0.15911E-02   -0.14075E-03  3312   0.293E-02    0.107E+00
DAV: 485    -0.791270106947E+03    0.30510E-02   -0.35210E-03  3894   0.680E-02    0.119E+00
DAV: 486    -0.791271620017E+03   -0.15131E-02   -0.69684E-03  3726   0.715E-02    0.105E+00
DAV: 487    -0.791272151465E+03   -0.53145E-03   -0.81680E-04  3246   0.337E-02    0.142E+00
DAV: 488    -0.791271907770E+03    0.24370E-03   -0.25721E-04  2478   0.205E-02    0.150E+00
DAV: 489    -0.791271846410E+03    0.61360E-04   -0.23940E-03  2928   0.351E-02    0.126E+00
DAV: 490    -0.791274880114E+03   -0.30337E-02   -0.11574E-03  3750   0.513E-02    0.176E+00
DAV: 491    -0.791274066726E+03    0.81339E-03   -0.57142E-03  3456   0.555E-02    0.820E-01
DAV: 492    -0.791277121551E+03   -0.30548E-02   -0.14333E-03  3660   0.602E-02    0.952E-01
DAV: 493    -0.791278529823E+03   -0.14083E-02   -0.10167E-03  3564   0.480E-02    0.103E+00
DAV: 494    -0.791278558174E+03   -0.28351E-04   -0.17344E-04  2526   0.208E-02    0.103E+00
DAV: 495    -0.791278212556E+03    0.34562E-03   -0.32999E-04  2310   0.226E-02    0.123E+00
DAV: 496    -0.791275486805E+03    0.27258E-02   -0.57695E-03  3744   0.624E-02    0.596E-01
DAV: 497    -0.791276721449E+03   -0.12346E-02   -0.46007E-04  3102   0.403E-02    0.606E-01
DAV: 498    -0.791276702000E+03    0.19449E-04   -0.57684E-04  2982   0.311E-02    0.730E-01
DAV: 499    -0.791276333110E+03    0.36889E-03   -0.14606E-04  2694   0.185E-02    0.776E-01
DAV: 500    -0.791276232282E+03    0.10083E-03   -0.18986E-05  2022   0.916E-03
   1 F= -.79127623E+03 E0= -.79126644E+03  d E =-.195939E-01  mag=     3.9927
