       N       E                     dE             d eps       ncg     rms          rms(c)
DAV:   1     0.134172011785E+05    0.13417E+05   -0.30232E+05  2272   0.125E+03
DAV:   2     0.448725871664E+04   -0.89299E+04   -0.77927E+04  2712   0.340E+02
DAV:   3    -0.673955217926E+02   -0.45547E+04   -0.44595E+04  3016   0.234E+02
DAV:   4    -0.931345202201E+03   -0.86395E+03   -0.83252E+03  3424   0.106E+02
DAV:   5    -0.997156130127E+03   -0.65811E+02   -0.64915E+02  3736   0.384E+01    0.139E+02
DAV:   6    -0.666105149721E+03    0.33105E+03   -0.19091E+03  2928   0.576E+01    0.739E+01
DAV:   7    -0.686375160180E+03   -0.20270E+02   -0.11817E+03  3448   0.917E+01    0.920E+01
DAV:   8    -0.708093494446E+03   -0.21718E+02   -0.27685E+02  3920   0.288E+01    0.606E+01
DAV:   9    -0.668091626141E+03    0.40002E+02   -0.13550E+02  3992   0.203E+01    0.697E+01
DAV:  10    -0.665053871689E+03    0.30378E+01   -0.24031E+02  3912   0.176E+01    0.341E+01
DAV:  11    -0.663219972071E+03    0.18339E+01   -0.55421E+01  3648   0.118E+01    0.459E+01
DAV:  12    -0.661904290518E+03    0.13157E+01   -0.47833E+01  4096   0.103E+01    0.311E+01
DAV:  13    -0.670330346749E+03   -0.84261E+01   -0.40693E+01  3880   0.978E+00    0.249E+01
DAV:  14    -0.678670582561E+03   -0.83402E+01   -0.15104E+01  3928   0.706E+00    0.188E+01
DAV:  15    -0.705061345397E+03   -0.26391E+02   -0.27502E+01  3544   0.685E+00    0.500E+01
DAV:  16    -0.703170365192E+03    0.18910E+01   -0.14706E+01  4280   0.582E+00    0.153E+01
DAV:  17    -0.715739962719E+03   -0.12570E+02   -0.97666E+00  3648   0.469E+00    0.171E+01
DAV:  18    -0.726317963459E+03   -0.10578E+02   -0.43434E+00  3792   0.323E+00    0.199E+01
DAV:  19    -0.733182044065E+03   -0.68641E+01   -0.24253E+00  3728   0.249E+00    0.191E+01
DAV:  20    -0.751762145998E+03   -0.18580E+02   -0.11660E+01  3384   0.552E+00    0.186E+01
DAV:  21    -0.765914193603E+03   -0.14152E+02   -0.11513E+01  3360   0.508E+00    0.188E+01
DAV:  22    -0.769410037290E+03   -0.34958E+01   -0.27927E+00  3688   0.314E+00    0.174E+01
DAV:  23    -0.774399235265E+03   -0.49892E+01   -0.27932E+00  3504   0.277E+00    0.161E+01
DAV:  24    -0.778148138783E+03   -0.37489E+01   -0.36285E+00  3752   0.457E+00    0.136E+01
DAV:  25    -0.781203364536E+03   -0.30552E+01   -0.24181E+00  3816   0.356E+00    0.117E+01
DAV:  26    -0.782216346605E+03   -0.10130E+01   -0.52137E-01  3600   0.117E+00    0.115E+01
DAV:  27    -0.782843733664E+03   -0.62739E+00   -0.20392E-01  3968   0.815E-01    0.108E+01
DAV:  28    -0.783776262593E+03   -0.93253E+00   -0.21710E-01  3808   0.922E-01    0.101E+01
DAV:  29    -0.786096921201E+03   -0.23207E+01   -0.11748E+00  3536   0.194E+00    0.845E+00
DAV:  30    -0.788089171987E+03   -0.19923E+01   -0.20480E+00  3648   0.256E+00    0.727E+00
DAV:  31    -0.788659766169E+03   -0.57059E+00   -0.42856E-01  3800   0.101E+00    0.732E+00
DAV:  32    -0.788691817743E+03   -0.32052E-01   -0.63403E-02  4040   0.391E-01    0.741E+00
DAV:  33    -0.788700749472E+03   -0.89317E-02   -0.14015E-02  4376   0.148E-01    0.740E+00
DAV:  34    -0.788747572612E+03   -0.46823E-01   -0.11211E-02  4088   0.207E-01    0.737E+00
DAV:  35    -0.788756068719E+03   -0.84961E-02   -0.28719E-02  3896   0.330E-01    0.738E+00
DAV:  36    -0.788791006735E+03   -0.34938E-01   -0.83877E-02  3816   0.494E-01    0.755E+00
DAV:  37    -0.788877611486E+03   -0.86605E-01   -0.21606E-02  3656   0.285E-01    0.725E+00
DAV:  38    -0.789294343981E+03   -0.41673E+00   -0.94713E-02  3760   0.614E-01    0.664E+00
DAV:  39    -0.790228609798E+03   -0.93427E+00   -0.71084E-01  3856   0.169E+00    0.647E+00
DAV:  40    -0.790719954698E+03   -0.49134E+00   -0.22564E-01  3512   0.707E-01    0.629E+00
DAV:  41    -0.791163025005E+03   -0.44307E+00   -0.24789E-01  3832   0.710E-01    0.591E+00
DAV:  42    -0.791395667059E+03   -0.23264E+00   -0.21836E-01  3776   0.630E-01    0.569E+00
DAV:  43    -0.791355752353E+03    0.39915E-01   -0.11277E-01  3696   0.554E-01    0.520E+00
DAV:  44    -0.791298020602E+03    0.57732E-01   -0.21556E-01  3616   0.769E-01    0.467E+00
DAV:  45    -0.791335426110E+03   -0.37406E-01   -0.13769E-01  3712   0.479E-01    0.438E+00
DAV:  46    -0.791328522602E+03    0.69035E-02   -0.42217E-02  3880   0.284E-01    0.416E+00
DAV:  47    -0.791274586867E+03    0.53936E-01   -0.11377E-01  3656   0.559E-01    0.372E+00
DAV:  48    -0.791236681635E+03    0.37905E-01   -0.10457E-01  3648   0.481E-01    0.339E+00
DAV:  49    -0.791217771600E+03    0.18910E-01   -0.39600E-02  4088   0.274E-01    0.314E+00
DAV:  50    -0.791185682342E+03    0.32089E-01   -0.80354E-02  3680   0.466E-01    0.166E+00
DAV:  51    -0.791202315267E+03   -0.16633E-01   -0.30501E-02  3816   0.212E-01    0.475E+00
DAV:  52    -0.791192472745E+03    0.98425E-02   -0.55851E-03  3888   0.122E-01    0.471E+00
DAV:  53    -0.791190524569E+03    0.19482E-02   -0.15780E-03  4192   0.629E-02    0.477E+00
DAV:  54    -0.791197713799E+03   -0.71892E-02   -0.12053E-03  4088   0.555E-02    0.554E+00
DAV:  55    -0.791200655802E+03   -0.29420E-02   -0.17985E-03  3944   0.877E-02    0.601E+00
DAV:  56    -0.791361060047E+03   -0.16040E+00   -0.34576E-01  3648   0.611E-01    0.143E+01
DAV:  57    -0.791339708126E+03    0.21352E-01   -0.14987E-02  3200   0.187E-01    0.141E+01
DAV:  58    -0.791344218909E+03   -0.45108E-02   -0.25624E-03  4168   0.664E-02    0.147E+01
DAV:  59    -0.791337842197E+03    0.63767E-02   -0.11147E-03  3488   0.438E-02    0.146E+01
DAV:  60    -0.791338676774E+03   -0.83458E-03   -0.18635E-04  2968   0.219E-02    0.147E+01
DAV:  61    -0.791864868784E+03   -0.52619E+00   -0.42343E-01  3672   0.918E-01    0.199E+01
DAV:  62    -0.791850476282E+03    0.14393E-01   -0.26156E-02  3472   0.237E-01    0.199E+01
DAV:  63    -0.791831373790E+03    0.19102E-01   -0.24425E-03  4216   0.867E-02    0.199E+01
DAV:  64    -0.791834097460E+03   -0.27237E-02   -0.37354E-04  3952   0.289E-02    0.199E+01
DAV:  65    -0.791832348483E+03    0.17490E-02   -0.10049E-03  4008   0.868E-02    0.198E+01
DAV:  66    -0.791992418950E+03   -0.16007E+00   -0.32273E-02  3696   0.408E-01    0.205E+01
DAV:  67    -0.792022037781E+03   -0.29619E-01   -0.61872E-03  3416   0.111E-01    0.206E+01
DAV:  68    -0.792010245881E+03    0.11792E-01   -0.80698E-04  4024   0.479E-02    0.206E+01
DAV:  69    -0.792012376680E+03   -0.21308E-02   -0.62657E-04  3808   0.506E-02    0.205E+01
DAV:  70    -0.791994482874E+03    0.17894E-01   -0.16058E-03  3984   0.999E-02    0.205E+01
DAV:  71    -0.792026859957E+03   -0.32377E-01   -0.26047E-03  3648   0.120E-01    0.209E+01
DAV:  72    -0.792028309782E+03   -0.14498E-02   -0.52554E-04  3360   0.452E-02    0.209E+01
DAV:  73    -0.792016139933E+03    0.12170E-01   -0.34872E-04  2784   0.220E-02    0.210E+01
DAV:  74    -0.791955188881E+03    0.60951E-01   -0.15269E-03  3944   0.831E-02    0.213E+01
DAV:  75    -0.791975088284E+03   -0.19899E-01   -0.19004E-03  3272   0.468E-02    0.212E+01
DAV:  76    -0.791718046367E+03    0.25704E+00   -0.12542E-01  3792   0.637E-01    0.201E+01
DAV:  77    -0.791743503734E+03   -0.25457E-01   -0.21158E-02  3672   0.226E-01    0.200E+01
DAV:  78    -0.791831838993E+03   -0.88335E-01   -0.35611E-02  4192   0.190E-01    0.203E+01
DAV:  79    -0.791806962174E+03    0.24877E-01   -0.14624E-03  2976   0.739E-02    0.202E+01
DAV:  80    -0.791865417067E+03   -0.58455E-01   -0.15940E-02  4112   0.118E-01    0.204E+01
DAV:  81    -0.791900557623E+03   -0.35141E-01   -0.54531E-03  3752   0.130E-01    0.203E+01
DAV:  82    -0.791894138590E+03    0.64190E-02   -0.29217E-03  3624   0.685E-02    0.203E+01
DAV:  83    -0.791884166072E+03    0.99725E-02   -0.11695E-03  3184   0.315E-02    0.203E+01
DAV:  84    -0.791833363678E+03    0.50802E-01   -0.23706E-02  4152   0.119E-01    0.202E+01
DAV:  85    -0.791867159495E+03   -0.33796E-01   -0.21052E-02  3840   0.804E-02    0.203E+01
DAV:  86    -0.791623405041E+03    0.24375E+00   -0.68095E-02  3776   0.459E-01    0.189E+01
DAV:  87    -0.791704644321E+03   -0.81239E-01   -0.20535E-02  3648   0.241E-01    0.196E+01
DAV:  88    -0.791629192180E+03    0.75452E-01   -0.49062E-03  3856   0.147E-01    0.193E+01
DAV:  89    -0.791646383993E+03   -0.17192E-01   -0.38147E-03  3424   0.767E-02    0.194E+01
DAV:  90    -0.791632228757E+03    0.14155E-01   -0.67387E-03  3968   0.107E-01    0.192E+01
DAV:  91    -0.791254825239E+03    0.37740E+00   -0.23854E-01  3720   0.886E-01    0.107E+01
DAV:  92    -0.791253246963E+03    0.15783E-02   -0.58085E-02  3560   0.348E-01    0.894E+00
DAV:  93    -0.791273058512E+03   -0.19812E-01   -0.63777E-03  3848   0.138E-01    0.883E+00
DAV:  94    -0.791265063753E+03    0.79948E-02   -0.88664E-04  4152   0.503E-02    0.881E+00
DAV:  95    -0.791216172477E+03    0.48891E-01   -0.52437E-03  3968   0.110E-01    0.868E+00
DAV:  96    -0.791692204625E+03   -0.47603E+00   -0.27801E-01  3968   0.889E-01    0.161E+01
DAV:  97    -0.791677758910E+03    0.14446E-01   -0.34632E-02  3408   0.345E-01    0.177E+01
DAV:  98    -0.791641965399E+03    0.35794E-01   -0.86589E-03  3960   0.224E-01    0.164E+01
DAV:  99    -0.791634631104E+03    0.73343E-02   -0.12773E-02  4112   0.252E-01    0.144E+01
DAV: 100    -0.791677159441E+03   -0.42528E-01   -0.29241E-02  3968   0.266E-01    0.165E+01
DAV: 101    -0.791773522116E+03   -0.96363E-01   -0.86787E-01  4104   0.226E+00    0.920E+00
DAV: 102    -0.791880439936E+03   -0.10692E+00   -0.42378E-01  3984   0.149E+00    0.846E+00
DAV: 103    -0.792064808131E+03   -0.18437E+00   -0.13374E-01  4056   0.136E+00    0.887E+00
DAV: 104    -0.792052410013E+03    0.12398E-01   -0.15922E-01  3928   0.823E-01    0.906E+00
DAV: 105    -0.792138384116E+03   -0.85974E-01   -0.73361E-01  3960   0.591E-01    0.128E+01
DAV: 106    -0.791946974866E+03    0.19141E+00   -0.14405E+00  3824   0.139E+00    0.880E+00
DAV: 107    -0.791858165198E+03    0.88810E-01   -0.40657E-01  3888   0.990E-01    0.118E+01
DAV: 108    -0.791650860488E+03    0.20730E+00   -0.92188E-02  3824   0.759E-01    0.122E+01
DAV: 109    -0.791645715600E+03    0.51449E-02   -0.32314E-02  3448   0.221E-01    0.122E+01
DAV: 110    -0.791652350617E+03   -0.66350E-02   -0.18887E-02  4096   0.100E-01    0.124E+01
DAV: 111    -0.791618144738E+03    0.34206E-01   -0.60313E-01  3984   0.174E+00    0.131E+01
DAV: 112    -0.791594563110E+03    0.23582E-01   -0.18468E+00  3864   0.121E+00    0.113E+01
DAV: 113    -0.791706939877E+03   -0.11238E+00   -0.55380E-01  3744   0.510E-01    0.123E+01
DAV: 114    -0.791643391308E+03    0.63549E-01   -0.84851E-01  3976   0.658E-01    0.126E+01
DAV: 115    -0.791637895106E+03    0.54962E-02   -0.22645E-02  3432   0.210E-01    0.124E+01
DAV: 116    -0.791747116365E+03   -0.10922E+00   -0.18053E-01  3920   0.897E-01    0.127E+01
DAV: 117    -0.791750298479E+03   -0.31821E-02   -0.38020E-01  3928   0.614E-01    0.127E+01
DAV: 118    -0.791742402208E+03    0.78963E-02   -0.49432E-02  3784   0.284E-01    0.127E+01
DAV: 119    -0.791766754994E+03   -0.24353E-01   -0.48089E-02  3672   0.145E-01    0.127E+01
DAV: 120    -0.791788133461E+03   -0.21378E-01   -0.44586E-02  3512   0.139E-01    0.128E+01
DAV: 121    -0.791798663047E+03   -0.10530E-01   -0.36140E-01  3704   0.495E-01    0.127E+01
DAV: 122    -0.791672064968E+03    0.12660E+00   -0.17898E-01  3736   0.395E-01    0.124E+01
DAV: 123    -0.791686063927E+03   -0.13999E-01   -0.11168E-02  3256   0.121E-01    0.125E+01
DAV: 124    -0.791684444303E+03    0.16196E-02   -0.17616E-02  3864   0.104E-01    0.124E+01
DAV: 125    -0.791683539887E+03    0.90442E-03   -0.11517E-03  3576   0.461E-02    0.124E+01
DAV: 126    -0.791750753061E+03   -0.67213E-01   -0.33819E-01  3848   0.673E-01    0.125E+01
DAV: 127    -0.791726471975E+03    0.24281E-01   -0.31294E-01  3664   0.477E-01    0.124E+01
DAV: 128    -0.791725683476E+03    0.78850E-03   -0.39344E-02  3616   0.164E-01    0.124E+01
DAV: 129    -0.791760006852E+03   -0.34323E-01   -0.11410E-01  3792   0.239E-01    0.125E+01
DAV: 130    -0.791464853435E+03    0.29515E+00   -0.39316E-01  3752   0.712E-01    0.117E+01
DAV: 131    -0.791206827926E+03    0.25803E+00   -0.20926E+00  3504   0.127E+00    0.814E+00
DAV: 132    -0.791391987008E+03   -0.18516E+00   -0.17287E+00  3616   0.881E-01    0.648E+00
DAV: 133    -0.791475421436E+03   -0.83434E-01   -0.12101E-01  3664   0.569E-01    0.622E+00
DAV: 134    -0.791532473083E+03   -0.57052E-01   -0.15224E-01  3832   0.719E-01    0.588E+00
DAV: 135    -0.791529182496E+03    0.32906E-02   -0.98541E-02  3816   0.575E-01    0.573E+00
DAV: 136    -0.790816259647E+03    0.71292E+00   -0.17700E+00  3680   0.253E+00    0.557E+00
DAV: 137    -0.790901775294E+03   -0.85516E-01   -0.32145E-01  3520   0.982E-01    0.589E+00
DAV: 138    -0.790751131761E+03    0.15064E+00   -0.65921E-02  3832   0.410E-01    0.590E+00
DAV: 139    -0.790719876252E+03    0.31256E-01   -0.69581E-03  3872   0.132E-01    0.587E+00
DAV: 140    -0.790704941912E+03    0.14934E-01   -0.31984E-03  4152   0.806E-02    0.588E+00
DAV: 141    -0.790934794304E+03   -0.22985E+00   -0.20249E-01  3800   0.917E-01    0.494E+00
DAV: 142    -0.790866657216E+03    0.68137E-01   -0.11413E-01  3624   0.610E-01    0.506E+00
DAV: 143    -0.790798635156E+03    0.68022E-01   -0.60987E-02  3672   0.363E-01    0.500E+00
DAV: 144    -0.790723968669E+03    0.74666E-01   -0.82798E-02  3656   0.439E-01    0.532E+00
DAV: 145    -0.790703525273E+03    0.20443E-01   -0.73298E-02  3568   0.432E-01    0.563E+00
DAV: 146    -0.789318319820E+03    0.13852E+01   -0.15525E+00  3680   0.218E+00    0.720E+00
DAV: 147    -0.789598929012E+03   -0.28061E+00   -0.39677E-01  3576   0.144E+00    0.644E+00
DAV: 148    -0.789534042898E+03    0.64886E-01   -0.24198E-01  3744   0.496E-01    0.660E+00
DAV: 149    -0.789526069153E+03    0.79737E-02   -0.32669E-02  3816   0.229E-01    0.659E+00
DAV: 150    -0.789540097883E+03   -0.14029E-01   -0.56147E-03  4000   0.972E-02    0.658E+00
DAV: 151    -0.789880447630E+03   -0.34035E+00   -0.11188E+00  3536   0.205E+00    0.530E+00
DAV: 152    -0.789805784342E+03    0.74663E-01   -0.32174E-01  3416   0.668E-01    0.524E+00
DAV: 153    -0.789642071120E+03    0.16371E+00   -0.88036E-02  3560   0.589E-01    0.528E+00
DAV: 154    -0.789518901574E+03    0.12317E+00   -0.68827E-02  3808   0.262E-01    0.538E+00
DAV: 155    -0.789437400228E+03    0.81501E-01   -0.27172E-02  3792   0.193E-01    0.551E+00
DAV: 156    -0.790045453964E+03   -0.60805E+00   -0.86173E-01  3800   0.124E+00    0.540E+00
DAV: 157    -0.789905854163E+03    0.13960E+00   -0.54785E-01  3504   0.107E+00    0.544E+00
DAV: 158    -0.789974949144E+03   -0.69095E-01   -0.10824E-01  3536   0.525E-01    0.549E+00
DAV: 159    -0.790109393718E+03   -0.13444E+00   -0.86298E-02  3560   0.411E-01    0.546E+00
DAV: 160    -0.790114567892E+03   -0.51742E-02   -0.73409E-02  3592   0.333E-01    0.536E+00
DAV: 161    -0.790668766846E+03   -0.55420E+00   -0.34018E-01  3576   0.852E-01    0.477E+00
DAV: 162    -0.790730743859E+03   -0.61977E-01   -0.85002E-02  3600   0.472E-01    0.446E+00
DAV: 163    -0.790807639129E+03   -0.76895E-01   -0.14590E-01  3664   0.471E-01    0.409E+00
DAV: 164    -0.790845817190E+03   -0.38178E-01   -0.10041E-01  3568   0.407E-01    0.378E+00
DAV: 165    -0.790851634946E+03   -0.58178E-02   -0.95009E-02  3776   0.286E-01    0.360E+00
DAV: 166    -0.790947855891E+03   -0.96221E-01   -0.42796E+00  3536   0.187E+00    0.794E+00
DAV: 167    -0.791040602269E+03   -0.92746E-01   -0.53944E-02  3504   0.476E-01    0.802E+00
DAV: 168    -0.791067416563E+03   -0.26814E-01   -0.28645E-02  3536   0.306E-01    0.651E+00
DAV: 169    -0.791066693873E+03    0.72269E-03   -0.42800E-03  3616   0.100E-01    0.629E+00
DAV: 170    -0.791141919090E+03   -0.75225E-01   -0.44594E-02  3528   0.323E-01    0.463E+00
DAV: 171    -0.791699814932E+03   -0.55790E+00   -0.20421E+00  3576   0.220E+00    0.294E+00
DAV: 172    -0.791849625183E+03   -0.14981E+00   -0.66269E-01  3592   0.988E-01    0.325E+00
DAV: 173    -0.791839347197E+03    0.10278E-01   -0.23978E-01  3872   0.524E-01    0.351E+00
DAV: 174    -0.791842090706E+03   -0.27435E-02   -0.10139E-02  4152   0.133E-01    0.353E+00
DAV: 175    -0.791842444492E+03   -0.35379E-03   -0.51000E-03  4008   0.889E-02    0.352E+00
DAV: 176    -0.791945034263E+03   -0.10259E+00   -0.20932E-01  3520   0.760E-01    0.316E+00
DAV: 177    -0.791946932876E+03   -0.18986E-02   -0.10573E-01  3432   0.444E-01    0.298E+00
DAV: 178    -0.791937462162E+03    0.94707E-02   -0.37294E-02  3600   0.267E-01    0.277E+00
DAV: 179    -0.791916545992E+03    0.20916E-01   -0.70440E-02  3560   0.418E-01    0.252E+00
DAV: 180    -0.791894171399E+03    0.22375E-01   -0.29573E-01  3600   0.769E-01    0.197E+00
DAV: 181    -0.791887771509E+03    0.63999E-02   -0.30659E-01  3792   0.815E-01    0.154E+00
DAV: 182    -0.791897677418E+03   -0.99059E-02   -0.33492E-01  3648   0.709E-01    0.107E+00
DAV: 183    -0.791906153547E+03   -0.84761E-02   -0.14950E-01  3736   0.475E-01    0.805E-01
DAV: 184    -0.791914873535E+03   -0.87200E-02   -0.35189E-02  3936   0.259E-01    0.722E-01
DAV: 185    -0.791922000955E+03   -0.71274E-02   -0.50176E-02  3816   0.240E-01    0.642E-01
DAV: 186    -0.791932974823E+03   -0.10974E-01   -0.52011E-02  3728   0.260E-01    0.803E-01
DAV: 187    -0.791936672721E+03   -0.36979E-02   -0.12077E-02  3816   0.117E-01    0.824E-01
DAV: 188    -0.791939168728E+03   -0.24960E-02   -0.98246E-03  3640   0.107E-01    0.875E-01
DAV: 189    -0.791940774485E+03   -0.16058E-02   -0.37593E-03  3880   0.628E-02    0.928E-01
DAV: 190    -0.791941005970E+03   -0.23148E-03   -0.38501E-04  3560   0.228E-02    0.936E-01
DAV: 191    -0.791940828083E+03    0.17789E-03   -0.47645E-03  3496   0.971E-02    0.885E-01
DAV: 192    -0.791940804344E+03    0.23739E-04   -0.14941E-03  3328   0.521E-02    0.840E-01
DAV: 193    -0.791941186419E+03   -0.38208E-03   -0.15667E-03  3072   0.413E-02    0.830E-01
DAV: 194    -0.791941028458E+03    0.15796E-03   -0.12941E-04  2448   0.153E-02    0.834E-01
DAV: 195    -0.791942255290E+03   -0.12268E-02   -0.23424E-03  3368   0.511E-02    0.851E-01
DAV: 196    -0.791943558070E+03   -0.13028E-02   -0.11300E-02  3480   0.936E-02    0.851E-01
DAV: 197    -0.791943825478E+03   -0.26741E-03   -0.29767E-03  3352   0.527E-02    0.832E-01
DAV: 198    -0.791943855969E+03   -0.30491E-04   -0.42450E-05  2328   0.105E-02    0.832E-01
DAV: 199    -0.791943838150E+03    0.17818E-04   -0.50021E-06  1872   0.585E-03    0.831E-01
DAV: 200    -0.791943876284E+03   -0.38133E-04   -0.14235E-04  2240   0.112E-02    0.824E-01
DAV: 201    -0.791943184702E+03    0.69158E-03   -0.41730E-04  3056   0.281E-02    0.783E-01
DAV: 202    -0.791943426515E+03   -0.24181E-03   -0.16065E-04  2592   0.185E-02    0.778E-01
DAV: 203    -0.791943340681E+03    0.85834E-04   -0.24044E-04  2912   0.187E-02    0.754E-01
DAV: 204    -0.791943893069E+03   -0.55239E-03   -0.97433E-04  3296   0.378E-02    0.689E-01
DAV: 205    -0.791946215021E+03   -0.23220E-02   -0.42991E-03  3480   0.838E-02    0.563E-01
DAV: 206    -0.791949092207E+03   -0.28772E-02   -0.12844E-02  3512   0.153E-01    0.388E-01
DAV: 207    -0.791952259093E+03   -0.31669E-02   -0.16511E-02  3616   0.133E-01    0.309E-01
DAV: 208    -0.791954416147E+03   -0.21571E-02   -0.12081E-02  3520   0.101E-01    0.271E-01
DAV: 209    -0.791956007989E+03   -0.15918E-02   -0.46188E-03  3528   0.620E-02    0.255E-01
DAV: 210    -0.791957393084E+03   -0.13851E-02   -0.39752E-03  3152   0.505E-02    0.239E-01
DAV: 211    -0.791958561464E+03   -0.11684E-02   -0.26701E-02  3416   0.136E-01    0.188E-01
DAV: 212    -0.791960126759E+03   -0.15653E-02   -0.27289E-03  3344   0.634E-02    0.189E-01
DAV: 213    -0.791961788553E+03   -0.16618E-02   -0.96737E-03  3368   0.789E-02    0.190E-01
DAV: 214    -0.791962192289E+03   -0.40374E-03   -0.30474E-03  2952   0.440E-02    0.217E-01
DAV: 215    -0.791962170967E+03    0.21323E-04   -0.69934E-05  2184   0.124E-02    0.224E-01
DAV: 216    -0.791961326761E+03    0.84421E-03   -0.15543E-03  2592   0.323E-02    0.224E-01
DAV: 217    -0.791961519747E+03   -0.19299E-03   -0.22106E-04  2144   0.155E-02    0.203E-01
DAV: 218    -0.791961575718E+03   -0.55970E-04   -0.71223E-05  1944   0.911E-03    0.196E-01
DAV: 219    -0.791961756913E+03   -0.18120E-03   -0.69571E-04  2400   0.221E-02    0.181E-01
DAV: 220    -0.791961929463E+03   -0.17255E-03   -0.59716E-04  2272   0.215E-02    0.177E-01
DAV: 221    -0.791962275635E+03   -0.34617E-03   -0.24785E-03  3120   0.412E-02    0.151E-01
DAV: 222    -0.791962655216E+03   -0.37958E-03   -0.15189E-03  2536   0.331E-02    0.156E-01
DAV: 223    -0.791963831836E+03   -0.11766E-02   -0.11525E-02  3264   0.817E-02    0.152E-01
DAV: 224    -0.791965137558E+03   -0.13057E-02   -0.90986E-03  3112   0.721E-02    0.168E-01
DAV: 225    -0.791965464220E+03   -0.32666E-03   -0.40511E-04  2112   0.194E-02    0.179E-01
DAV: 226    -0.791965252624E+03    0.21160E-03   -0.61154E-04  2096   0.227E-02    0.173E-01
DAV: 227    -0.791964863346E+03    0.38928E-03   -0.85067E-04  2064   0.238E-02    0.170E-01
DAV: 228    -0.791964185157E+03    0.67819E-03   -0.28982E-03  2432   0.406E-02    0.156E-01
DAV: 229    -0.791964380471E+03   -0.19531E-03   -0.13732E-04  1760   0.135E-02    0.156E-01
DAV: 230    -0.791963579350E+03    0.80112E-03   -0.38457E-03  2344   0.473E-02    0.148E-01
DAV: 231    -0.791963857322E+03   -0.27797E-03   -0.22014E-04  1848   0.176E-02    0.157E-01
DAV: 232    -0.791963504794E+03    0.35253E-03   -0.80371E-04  1848   0.237E-02    0.161E-01
DAV: 233    -0.791963543668E+03   -0.38874E-04   -0.29930E-05  1472   0.870E-03    0.160E-01
DAV: 234    -0.791963727139E+03   -0.18347E-03   -0.24386E-04  1672   0.127E-02    0.162E-01
DAV: 235    -0.791963704354E+03    0.22785E-04   -0.46674E-06  1240   0.514E-03    0.164E-01
DAV: 236    -0.791964648719E+03   -0.94436E-03   -0.42160E-03  2680   0.496E-02    0.170E-01
DAV: 237    -0.791964753148E+03   -0.10443E-03   -0.55987E-04  2128   0.207E-02    0.172E-01
DAV: 238    -0.791964595923E+03    0.15722E-03   -0.30820E-03  2640   0.421E-02    0.188E-01
DAV: 239    -0.791963788954E+03    0.80697E-03   -0.10341E-02  3056   0.754E-02    0.201E-01
DAV: 240    -0.791963372339E+03    0.41662E-03   -0.61936E-03  2912   0.587E-02    0.212E-01
DAV: 241    -0.791963367376E+03    0.49622E-05   -0.29830E-03  2904   0.470E-02    0.196E-01
DAV: 242    -0.791963507780E+03   -0.14040E-03   -0.10387E-03  2528   0.272E-02    0.224E-01
DAV: 243    -0.791964218683E+03   -0.71090E-03   -0.11245E-03  2568   0.286E-02    0.256E-01
DAV: 244    -0.791965141164E+03   -0.92248E-03   -0.50088E-03  2728   0.527E-02    0.288E-01
DAV: 245    -0.791965626153E+03   -0.48499E-03   -0.18099E-03  2328   0.323E-02    0.305E-01
DAV: 246    -0.791967029703E+03   -0.14036E-02   -0.19302E-02  2976   0.100E-01    0.342E-01
DAV: 247    -0.791967804047E+03   -0.77434E-03   -0.59115E-03  2608   0.563E-02    0.364E-01
DAV: 248    -0.791968122737E+03   -0.31869E-03   -0.10133E-03  2024   0.252E-02    0.372E-01
DAV: 249    -0.791968249019E+03   -0.12628E-03   -0.20618E-04  1712   0.137E-02    0.376E-01
DAV: 250    -0.791968401718E+03   -0.15270E-03   -0.32152E-04  1760   0.151E-02    0.377E-01
DAV: 251    -0.791967920803E+03    0.48091E-03   -0.28228E-03  2096   0.398E-02    0.377E-01
DAV: 252    -0.791966720697E+03    0.12001E-02   -0.15355E-02  2568   0.895E-02    0.364E-01
DAV: 253    -0.791965234318E+03    0.14864E-02   -0.27502E-02  2888   0.119E-01    0.325E-01
DAV: 254    -0.791964734645E+03    0.49967E-03   -0.66897E-03  2672   0.597E-02    0.317E-01
DAV: 255    -0.791964345104E+03    0.38954E-03   -0.40972E-03  2488   0.466E-02    0.310E-01
DAV: 256    -0.791960451741E+03    0.38934E-02   -0.12409E-01  3288   0.255E-01    0.255E-01
DAV: 257    -0.791961435112E+03   -0.98337E-03   -0.12922E-03  2656   0.368E-02    0.246E-01
DAV: 258    -0.791961156899E+03    0.27821E-03   -0.15126E-03  2320   0.294E-02    0.245E-01
DAV: 259    -0.791961096679E+03    0.60220E-04   -0.11029E-04  1920   0.115E-02    0.243E-01
DAV: 260    -0.791961140411E+03   -0.43731E-04   -0.25932E-05  1608   0.707E-03    0.241E-01
DAV: 261    -0.791961610755E+03   -0.47034E-03   -0.19431E-03  2200   0.340E-02    0.251E-01
DAV: 262    -0.791961719573E+03   -0.10882E-03   -0.38916E-04  1816   0.166E-02    0.247E-01
DAV: 263    -0.791961842805E+03   -0.12323E-03   -0.13893E-04  1592   0.114E-02    0.252E-01
DAV: 264    -0.791961979028E+03   -0.13622E-03   -0.10710E-04  1536   0.152E-02    0.254E-01
DAV: 265    -0.791961604013E+03    0.37502E-03   -0.20686E-03  2104   0.340E-02    0.257E-01
DAV: 266    -0.791961383388E+03    0.22063E-03   -0.71839E-04  1960   0.213E-02    0.260E-01
DAV: 267    -0.791961610719E+03   -0.22733E-03   -0.20244E-04  1664   0.144E-02    0.264E-01
DAV: 268    -0.791961742422E+03   -0.13170E-03   -0.27343E-04  1856   0.150E-02    0.278E-01
DAV: 269    -0.791961975381E+03   -0.23296E-03   -0.97229E-04  2528   0.260E-02    0.307E-01
DAV: 270    -0.791961737562E+03    0.23782E-03   -0.27608E-03  2456   0.379E-02    0.339E-01
DAV: 271    -0.791960652850E+03    0.10847E-02   -0.20150E-02  3048   0.103E-01    0.338E-01
DAV: 272    -0.791960650979E+03    0.18702E-05   -0.16220E-03  2584   0.315E-02    0.332E-01
DAV: 273    -0.791960608859E+03    0.42120E-04   -0.41409E-04  1976   0.171E-02    0.329E-01
DAV: 274    -0.791960589850E+03    0.19009E-04   -0.20029E-04  1752   0.126E-02    0.332E-01
DAV: 275    -0.791960445200E+03    0.14465E-03   -0.16631E-03  2208   0.292E-02    0.343E-01
DAV: 276    -0.791951659110E+03    0.87861E-02   -0.24310E-01  3064   0.386E-01    0.257E-01
DAV: 277    -0.791953150784E+03   -0.14917E-02   -0.34807E-03  2968   0.618E-02    0.266E-01
DAV: 278    -0.791953299040E+03   -0.14826E-03   -0.36146E-04  2424   0.153E-02    0.256E-01
DAV: 279    -0.791953201680E+03    0.97361E-04   -0.34912E-04  2128   0.179E-02    0.254E-01
DAV: 280    -0.791953173366E+03    0.28314E-04   -0.31791E-05  1640   0.797E-03    0.253E-01
DAV: 281    -0.791952403795E+03    0.76957E-03   -0.10923E-03  2608   0.292E-02    0.259E-01
DAV: 282    -0.791952416318E+03   -0.12524E-04   -0.11605E-05  1568   0.688E-03    0.261E-01
DAV: 283    -0.791952401542E+03    0.14776E-04   -0.40524E-05  1624   0.750E-03    0.261E-01
DAV: 284    -0.791952400053E+03    0.14889E-05   -0.41463E-06  1296   0.411E-03
   1 F= -.79195240E+03 E0= -.79195238E+03  d E =-.362516E-04  mag=     1.9969
