       N       E                     dE             d eps       ncg     rms          rms(c)
DAV:   1     0.133427247119E+05    0.13343E+05   -0.30255E+05  2310   0.123E+03
DAV:   2     0.435965633453E+04   -0.89831E+04   -0.77624E+04  2745   0.335E+02
DAV:   3    -0.165818688163E+03   -0.45255E+04   -0.44115E+04  3120   0.228E+02
DAV:   4    -0.946079742011E+03   -0.78026E+03   -0.76610E+03  3435   0.100E+02
DAV:   5    -0.998035672357E+03   -0.51956E+02   -0.51235E+02  3870   0.346E+01    0.139E+02
DAV:   6    -0.667452172243E+03    0.33058E+03   -0.19250E+03  3030   0.568E+01    0.823E+01
DAV:   7    -0.693941966289E+03   -0.26490E+02   -0.14253E+03  3420   0.983E+01    0.941E+01
DAV:   8    -0.717735772723E+03   -0.23794E+02   -0.31555E+02  3990   0.308E+01    0.607E+01
DAV:   9    -0.673673022299E+03    0.44063E+02   -0.13058E+02  4035   0.196E+01    0.429E+01
DAV:  10    -0.671897467258E+03    0.17756E+01   -0.13927E+02  3735   0.178E+01    0.352E+01
DAV:  11    -0.664114050307E+03    0.77834E+01   -0.41431E+01  3750   0.116E+01    0.263E+01
DAV:  12    -0.670788186514E+03   -0.66741E+01   -0.33404E+01  3975   0.862E+00    0.515E+01
DAV:  13    -0.669631763603E+03    0.11564E+01   -0.95305E+01  4125   0.107E+01    0.216E+01
DAV:  14    -0.680085613968E+03   -0.10454E+02   -0.30426E+01  3720   0.952E+00    0.171E+01
DAV:  15    -0.701521979914E+03   -0.21436E+02   -0.26137E+01  3720   0.588E+00    0.391E+01
DAV:  16    -0.700672502050E+03    0.84948E+00   -0.18152E+01  4170   0.489E+00    0.164E+01
DAV:  17    -0.714693175372E+03   -0.14021E+02   -0.87523E+00  3675   0.493E+00    0.137E+01
DAV:  18    -0.732360819787E+03   -0.17668E+02   -0.12609E+01  3525   0.630E+00    0.104E+01
DAV:  19    -0.755795257896E+03   -0.23434E+02   -0.20926E+01  3285   0.593E+00    0.126E+01
DAV:  20    -0.760119414378E+03   -0.43242E+01   -0.51362E+00  4065   0.306E+00    0.954E+00
DAV:  21    -0.764755092037E+03   -0.46357E+01   -0.17122E+00  3915   0.202E+00    0.873E+00
DAV:  22    -0.775074060293E+03   -0.10319E+02   -0.55670E+00  3570   0.349E+00    0.729E+00
DAV:  23    -0.782747112538E+03   -0.76731E+01   -0.59672E+00  3585   0.363E+00    0.599E+00
DAV:  24    -0.786640565286E+03   -0.38935E+01   -0.22700E+00  3600   0.206E+00    0.482E+00
DAV:  25    -0.788630726010E+03   -0.19902E+01   -0.49762E-01  3825   0.116E+00    0.423E+00
DAV:  26    -0.789908397902E+03   -0.12777E+01   -0.27975E-01  3780   0.959E-01    0.377E+00
DAV:  27    -0.791024909122E+03   -0.11165E+01   -0.28785E-01  3675   0.107E+00    0.312E+00
DAV:  28    -0.791703651919E+03   -0.67874E+00   -0.37792E-01  3810   0.101E+00    0.249E+00
DAV:  29    -0.791818771949E+03   -0.11512E+00   -0.19435E-01  4080   0.701E-01    0.214E+00
DAV:  30    -0.791855664206E+03   -0.36892E-01   -0.88036E-02  4095   0.419E-01    0.194E+00
DAV:  31    -0.791879521417E+03   -0.23857E-01   -0.99267E-02  3840   0.408E-01    0.172E+00
DAV:  32    -0.791917135284E+03   -0.37614E-01   -0.27139E-01  3915   0.665E-01    0.137E+00
DAV:  33    -0.791945073173E+03   -0.27938E-01   -0.25001E-01  3990   0.604E-01    0.106E+00
DAV:  34    -0.791962900172E+03   -0.17827E-01   -0.10323E-01  4185   0.342E-01    0.894E-01
DAV:  35    -0.791979792349E+03   -0.16892E-01   -0.11700E-01  3780   0.350E-01    0.740E-01
DAV:  36    -0.792007808368E+03   -0.28016E-01   -0.40419E-01  3735   0.626E-01    0.497E-01
DAV:  37    -0.792028981330E+03   -0.21173E-01   -0.22235E-01  3855   0.444E-01    0.360E-01
DAV:  38    -0.792038648233E+03   -0.96669E-02   -0.59162E-02  3900   0.221E-01    0.287E-01
DAV:  39    -0.792044572506E+03   -0.59243E-02   -0.43570E-02  3960   0.182E-01    0.239E-01
DAV:  40    -0.792049702343E+03   -0.51298E-02   -0.65273E-02  3765   0.223E-01    0.176E-01
DAV:  41    -0.792052605629E+03   -0.29033E-02   -0.40878E-02  3705   0.177E-01    0.140E-01
DAV:  42    -0.792054261253E+03   -0.16556E-02   -0.32815E-02  3660   0.171E-01    0.951E-02
DAV:  43    -0.792054801223E+03   -0.53997E-03   -0.14245E-03  3540   0.638E-02    0.901E-02
DAV:  44    -0.792055282883E+03   -0.48166E-03   -0.26636E-03  3570   0.537E-02    0.700E-02
DAV:  45    -0.792055663360E+03   -0.38048E-03   -0.24347E-03  3615   0.526E-02    0.521E-02
DAV:  46    -0.792055860125E+03   -0.19676E-03   -0.98564E-04  3390   0.385E-02    0.390E-02
DAV:  47    -0.792056046751E+03   -0.18663E-03   -0.78480E-04  3150   0.287E-02    0.331E-02
DAV:  48    -0.792056179705E+03   -0.13295E-03   -0.57782E-04  2595   0.236E-02    0.288E-02
DAV:  49    -0.792056259592E+03   -0.79887E-04   -0.21658E-04  2445   0.157E-02    0.278E-02
DAV:  50    -0.792056340951E+03   -0.81359E-04   -0.21115E-04  2475   0.151E-02    0.265E-02
DAV:  51    -0.792056422768E+03   -0.81817E-04   -0.18659E-04  2340   0.141E-02    0.261E-02
DAV:  52    -0.792056523574E+03   -0.10081E-03   -0.31247E-04  2385   0.169E-02    0.253E-02
DAV:  53    -0.792056714268E+03   -0.19069E-03   -0.12662E-03  2670   0.298E-02    0.238E-02
DAV:  54    -0.792056877383E+03   -0.16311E-03   -0.94408E-04  2430   0.257E-02    0.233E-02
DAV:  55    -0.792057021747E+03   -0.14436E-03   -0.71060E-04  2460   0.231E-02    0.220E-02
DAV:  56    -0.792057059469E+03   -0.37722E-04   -0.71850E-05  2145   0.106E-02    0.228E-02
DAV:  57    -0.792056985994E+03    0.73476E-04   -0.15181E-04  2145   0.123E-02    0.241E-02
DAV:  58    -0.792057214824E+03   -0.22883E-03   -0.17175E-03  2355   0.335E-02    0.238E-02
DAV:  59    -0.792057553588E+03   -0.33876E-03   -0.57793E-03  2820   0.595E-02    0.249E-02
DAV:  60    -0.792057820179E+03   -0.26659E-03   -0.24469E-03  2475   0.394E-02    0.249E-02
DAV:  61    -0.792057871249E+03   -0.51070E-04   -0.76982E-05  2025   0.113E-02    0.246E-02
DAV:  62    -0.792057809078E+03    0.62171E-04   -0.10086E-04  1950   0.109E-02    0.259E-02
DAV:  63    -0.792057699308E+03    0.10977E-03   -0.35823E-04  2115   0.162E-02    0.256E-02
DAV:  64    -0.792057506151E+03    0.19316E-03   -0.12921E-03  2325   0.282E-02    0.268E-02
DAV:  65    -0.792057300443E+03    0.20571E-03   -0.14950E-03  2355   0.300E-02    0.278E-02
DAV:  66    -0.792057537638E+03   -0.23719E-03   -0.13427E-03  2310   0.303E-02    0.238E-02
DAV:  67    -0.792057461555E+03    0.76083E-04   -0.12926E-04  1935   0.113E-02    0.250E-02
DAV:  68    -0.792057460723E+03    0.83153E-06   -0.24349E-06  1560   0.327E-03
   1 F= -.79205746E+03 E0= -.79205746E+03  d E =-.197837E-05  mag=     4.0052
