       N       E                     dE             d eps       ncg     rms          rms(c)
DAV:   1     0.133461281981E+05    0.13346E+05   -0.30295E+05  2304   0.124E+03
DAV:   2     0.440968443569E+04   -0.89364E+04   -0.77980E+04  2736   0.338E+02
DAV:   3    -0.112665702257E+03   -0.45224E+04   -0.44280E+04  3048   0.231E+02
DAV:   4    -0.938295755988E+03   -0.82563E+03   -0.79763E+03  3468   0.102E+02
DAV:   5    -0.997481601389E+03   -0.59186E+02   -0.58388E+02  3816   0.361E+01    0.139E+02
DAV:   6    -0.667009219109E+03    0.33047E+03   -0.19378E+03  2976   0.574E+01    0.752E+01
DAV:   7    -0.689803021982E+03   -0.22794E+02   -0.12039E+03  3432   0.911E+01    0.874E+01
DAV:   8    -0.706609992354E+03   -0.16807E+02   -0.26384E+02  3864   0.281E+01    0.582E+01
DAV:   9    -0.667875882342E+03    0.38734E+02   -0.15494E+02  3984   0.208E+01    0.692E+01
DAV:  10    -0.665402667695E+03    0.24732E+01   -0.26777E+02  3804   0.172E+01    0.307E+01
DAV:  11    -0.665111494280E+03    0.29117E+00   -0.63210E+01  3708   0.110E+01    0.574E+01
DAV:  12    -0.661326067607E+03    0.37854E+01   -0.80565E+01  4248   0.100E+01    0.280E+01
DAV:  13    -0.670099996180E+03   -0.87739E+01   -0.47507E+01  3840   0.996E+00    0.230E+01
DAV:  14    -0.681709820802E+03   -0.11610E+02   -0.13399E+01  3876   0.647E+00    0.172E+01
DAV:  15    -0.707083229757E+03   -0.25373E+02   -0.23338E+01  3492   0.661E+00    0.304E+01
DAV:  16    -0.710576359230E+03   -0.34931E+01   -0.10233E+01  4092   0.503E+00    0.140E+01
DAV:  17    -0.726102305855E+03   -0.15526E+02   -0.14041E+01  3540   0.462E+00    0.138E+01
DAV:  18    -0.735481530215E+03   -0.93792E+01   -0.41426E+00  3780   0.352E+00    0.126E+01
DAV:  19    -0.750500476728E+03   -0.15019E+02   -0.71352E+00  3504   0.419E+00    0.110E+01
DAV:  20    -0.768960663516E+03   -0.18460E+02   -0.14787E+01  3300   0.445E+00    0.893E+00
DAV:  21    -0.778233907042E+03   -0.92732E+01   -0.72229E+00  3768   0.342E+00    0.773E+00
DAV:  22    -0.781532207399E+03   -0.32983E+01   -0.18201E+00  3684   0.214E+00    0.653E+00
DAV:  23    -0.783751568534E+03   -0.22194E+01   -0.35998E+00  3924   0.180E+00    0.951E+00
DAV:  24    -0.783687289043E+03    0.64279E-01   -0.21322E-01  3768   0.659E-01    0.936E+00
DAV:  25    -0.783722328027E+03   -0.35039E-01   -0.43578E-02  4464   0.302E-01    0.946E+00
DAV:  26    -0.784212721150E+03   -0.49039E+00   -0.49282E-01  3924   0.744E-01    0.948E+00
DAV:  27    -0.784199625400E+03    0.13096E-01   -0.24500E-02  3612   0.215E-01    0.947E+00
DAV:  28    -0.784197103173E+03    0.25222E-02   -0.28524E-03  4500   0.691E-02    0.948E+00
DAV:  29    -0.784196841534E+03    0.26164E-03   -0.60736E-04  4164   0.365E-02    0.947E+00
DAV:  30    -0.784270656295E+03   -0.73815E-01   -0.73366E-02  4020   0.306E-01    0.938E+00
DAV:  31    -0.784266607258E+03    0.40490E-02   -0.41189E-03  3588   0.894E-02    0.938E+00
DAV:  32    -0.784480164793E+03   -0.21356E+00   -0.71478E-02  3864   0.345E-01    0.935E+00
DAV:  33    -0.784820481407E+03   -0.34032E+00   -0.44897E-01  3852   0.559E-01    0.929E+00
DAV:  34    -0.784828900743E+03   -0.84193E-02   -0.80054E-02  3576   0.172E-01    0.929E+00
DAV:  35    -0.785198368047E+03   -0.36947E+00   -0.78780E-02  3936   0.443E-01    0.920E+00
DAV:  36    -0.786041899368E+03   -0.84353E+00   -0.55090E-01  3888   0.880E-01    0.885E+00
DAV:  37    -0.787079048070E+03   -0.10371E+01   -0.12480E+00  3876   0.166E+00    0.816E+00
DAV:  38    -0.788296653957E+03   -0.12176E+01   -0.12861E+00  3660   0.277E+00    0.686E+00
DAV:  39    -0.789432580646E+03   -0.11359E+01   -0.15203E+00  3732   0.263E+00    0.611E+00
DAV:  40    -0.789871302833E+03   -0.43872E+00   -0.84273E-01  3864   0.135E+00    0.609E+00
DAV:  41    -0.789894889078E+03   -0.23586E-01   -0.21240E-01  3984   0.547E-01    0.603E+00
DAV:  42    -0.789850051824E+03    0.44837E-01   -0.57906E-02  3864   0.318E-01    0.591E+00
DAV:  43    -0.789871148777E+03   -0.21097E-01   -0.14961E-01  3852   0.426E-01    0.574E+00
DAV:  44    -0.789847969431E+03    0.23179E-01   -0.46406E-01  3792   0.759E-01    0.541E+00
DAV:  45    -0.790043031765E+03   -0.19506E+00   -0.12611E+00  3564   0.133E+00    0.507E+00
DAV:  46    -0.790534050572E+03   -0.49102E+00   -0.54283E-01  3576   0.123E+00    0.438E+00
DAV:  47    -0.791120817392E+03   -0.58677E+00   -0.92903E-01  3648   0.166E+00    0.352E+00
DAV:  48    -0.791233343768E+03   -0.11253E+00   -0.68551E-01  3792   0.937E-01    0.304E+00
DAV:  49    -0.791468533740E+03   -0.23519E+00   -0.60915E-01  3648   0.119E+00    0.336E+00
DAV:  50    -0.791614824260E+03   -0.14629E+00   -0.61750E-01  3828   0.831E-01    0.287E+00
DAV:  51    -0.791739244891E+03   -0.12442E+00   -0.74433E-01  3840   0.118E+00    0.283E+00
DAV:  52    -0.791816932903E+03   -0.77688E-01   -0.19763E-01  3768   0.625E-01    0.239E+00
DAV:  53    -0.791852532440E+03   -0.35600E-01   -0.22381E-01  3816   0.600E-01    0.188E+00
DAV:  54    -0.791885628457E+03   -0.33096E-01   -0.23675E-01  3804   0.607E-01    0.144E+00
DAV:  55    -0.791908417774E+03   -0.22789E-01   -0.10990E-01  3876   0.389E-01    0.123E+00
DAV:  56    -0.791875956690E+03    0.32461E-01   -0.43420E-01  3816   0.846E-01    0.147E+00
DAV:  57    -0.791929616104E+03   -0.53659E-01   -0.10991E-01  3600   0.425E-01    0.124E+00
DAV:  58    -0.791969116279E+03   -0.39500E-01   -0.17110E-01  3768   0.478E-01    0.121E+00
DAV:  59    -0.791989763551E+03   -0.20647E-01   -0.13830E-01  3780   0.385E-01    0.119E+00
DAV:  60    -0.791994989693E+03   -0.52261E-02   -0.39774E-02  3948   0.215E-01    0.120E+00
DAV:  61    -0.791991957624E+03    0.30321E-02   -0.38131E-02  3816   0.247E-01    0.109E+00
DAV:  62    -0.791994240148E+03   -0.22825E-02   -0.36487E-02  3648   0.209E-01    0.111E+00
DAV:  63    -0.791993028493E+03    0.12117E-02   -0.19097E-02  3672   0.148E-01    0.108E+00
DAV:  64    -0.791987086467E+03    0.59420E-02   -0.12196E-02  3636   0.141E-01    0.978E-01
DAV:  65    -0.791983372395E+03    0.37141E-02   -0.56266E-03  3648   0.936E-02    0.935E-01
DAV:  66    -0.791991095991E+03   -0.77236E-02   -0.58868E-02  3708   0.336E-01    0.117E+00
DAV:  67    -0.791991060605E+03    0.35386E-04   -0.54122E-03  3588   0.104E-01    0.112E+00
DAV:  68    -0.791988458507E+03    0.26021E-02   -0.89828E-03  3648   0.107E-01    0.104E+00
DAV:  69    -0.791979942517E+03    0.85160E-02   -0.22885E-02  3660   0.174E-01    0.907E-01
DAV:  70    -0.791975932521E+03    0.40100E-02   -0.11621E-02  3600   0.119E-01    0.878E-01
DAV:  71    -0.791961809804E+03    0.14123E-01   -0.91022E-02  3744   0.428E-01    0.841E-01
DAV:  72    -0.791966585407E+03   -0.47756E-02   -0.32121E-02  3588   0.242E-01    0.882E-01
DAV:  73    -0.791973985435E+03   -0.74000E-02   -0.19972E-02  3828   0.160E-01    0.888E-01
DAV:  74    -0.791978511379E+03   -0.45259E-02   -0.59283E-03  3600   0.837E-02    0.895E-01
DAV:  75    -0.791984707120E+03   -0.61957E-02   -0.79974E-03  3636   0.956E-02    0.870E-01
DAV:  76    -0.792016352689E+03   -0.31646E-01   -0.67504E-01  3612   0.866E-01    0.769E-01
DAV:  77    -0.792024344355E+03   -0.79917E-02   -0.22754E-02  3480   0.212E-01    0.544E-01
DAV:  78    -0.792029704699E+03   -0.53603E-02   -0.19919E-02  3744   0.149E-01    0.391E-01
DAV:  79    -0.792032473139E+03   -0.27684E-02   -0.15758E-02  3624   0.134E-01    0.260E-01
DAV:  80    -0.792034950953E+03   -0.24778E-02   -0.16734E-02  3648   0.124E-01    0.152E-01
DAV:  81    -0.792036122181E+03   -0.11712E-02   -0.13748E-02  3552   0.111E-01    0.932E-02
DAV:  82    -0.792037482277E+03   -0.13601E-02   -0.75683E-03  3492   0.796E-02    0.802E-02
DAV:  83    -0.792038413509E+03   -0.93123E-03   -0.58950E-03  3396   0.662E-02    0.746E-02
DAV:  84    -0.792039077816E+03   -0.66431E-03   -0.35441E-03  3132   0.516E-02    0.721E-02
DAV:  85    -0.792039605817E+03   -0.52800E-03   -0.27511E-03  2928   0.456E-02    0.691E-02
DAV:  86    -0.792040130626E+03   -0.52481E-03   -0.19903E-03  2820   0.389E-02    0.631E-02
DAV:  87    -0.792040750545E+03   -0.61992E-03   -0.41601E-03  2808   0.532E-02    0.578E-02
DAV:  88    -0.792041320436E+03   -0.56989E-03   -0.49763E-03  2808   0.576E-02    0.655E-02
DAV:  89    -0.792041459027E+03   -0.13859E-03   -0.26461E-04  2004   0.157E-02    0.642E-02
DAV:  90    -0.792041294402E+03    0.16462E-03   -0.34652E-04  1836   0.174E-02    0.680E-02
DAV:  91    -0.792041807620E+03   -0.51322E-03   -0.41511E-03  2400   0.520E-02    0.659E-02
DAV:  92    -0.792042034943E+03   -0.22732E-03   -0.71161E-04  1944   0.232E-02    0.634E-02
DAV:  93    -0.792042531161E+03   -0.49622E-03   -0.38737E-03  2484   0.502E-02    0.631E-02
DAV:  94    -0.792043255691E+03   -0.72453E-03   -0.88645E-03  2844   0.740E-02    0.641E-02
DAV:  95    -0.792044057929E+03   -0.80224E-03   -0.99285E-03  2496   0.782E-02    0.711E-02
DAV:  96    -0.792044060218E+03   -0.22895E-05   -0.19145E-04  1932   0.163E-02    0.820E-02
DAV:  97    -0.792043929156E+03    0.13106E-03   -0.14459E-04  1752   0.126E-02    0.847E-02
DAV:  98    -0.792043823086E+03    0.10607E-03   -0.20980E-04  1788   0.139E-02    0.812E-02
DAV:  99    -0.792043378715E+03    0.44437E-03   -0.26392E-03  2304   0.412E-02    0.755E-02
DAV: 100    -0.792043865054E+03   -0.48634E-03   -0.26789E-03  2184   0.430E-02    0.770E-02
DAV: 101    -0.792045092695E+03   -0.12276E-02   -0.31138E-02  3060   0.138E-01    0.942E-02
DAV: 102    -0.792045939710E+03   -0.84702E-03   -0.87245E-03  2544   0.741E-02    0.108E-01
DAV: 103    -0.792046018924E+03   -0.79214E-04   -0.12731E-04  1752   0.145E-02    0.123E-01
DAV: 104    -0.792046257890E+03   -0.23897E-03   -0.10586E-03  1944   0.273E-02    0.122E-01
DAV: 105    -0.792046191419E+03    0.66471E-04   -0.84057E-05  1644   0.110E-02    0.127E-01
DAV: 106    -0.792046587770E+03   -0.39635E-03   -0.22842E-03  2400   0.405E-02    0.133E-01
DAV: 107    -0.792047239843E+03   -0.65207E-03   -0.55259E-03  2760   0.598E-02    0.141E-01
DAV: 108    -0.792048242596E+03   -0.10028E-02   -0.16626E-02  3096   0.102E-01    0.159E-01
DAV: 109    -0.792049553542E+03   -0.13109E-02   -0.41483E-02  3144   0.159E-01    0.188E-01
DAV: 110    -0.792050077271E+03   -0.52373E-03   -0.93236E-04  2160   0.316E-02    0.229E-01
DAV: 111    -0.792050747983E+03   -0.67071E-03   -0.13129E-02  2808   0.919E-02    0.244E-01
DAV: 112    -0.792050643602E+03    0.10438E-03   -0.11754E-03  2172   0.328E-02    0.251E-01
DAV: 113    -0.792050551777E+03    0.91825E-04   -0.24550E-04  1824   0.154E-02    0.250E-01
DAV: 114    -0.792050753159E+03   -0.20138E-03   -0.78394E-04  1884   0.232E-02    0.256E-01
DAV: 115    -0.792050908337E+03   -0.15518E-03   -0.90790E-04  2148   0.256E-02    0.272E-01
DAV: 116    -0.792050931304E+03   -0.22967E-04   -0.22749E-04  1872   0.148E-02    0.284E-01
DAV: 117    -0.792051017566E+03   -0.86262E-04   -0.18893E-04  1752   0.133E-02    0.286E-01
DAV: 118    -0.792051000966E+03    0.16600E-04   -0.70210E-06  1368   0.524E-03    0.288E-01
DAV: 119    -0.792050847182E+03    0.15378E-03   -0.59611E-04  1740   0.191E-02    0.285E-01
DAV: 120    -0.792051099488E+03   -0.25231E-03   -0.69933E-04  1800   0.225E-02    0.291E-01
DAV: 121    -0.792051578990E+03   -0.47950E-03   -0.63919E-03  2376   0.631E-02    0.319E-01
DAV: 122    -0.792052073960E+03   -0.49497E-03   -0.61911E-03  2484   0.619E-02    0.338E-01
DAV: 123    -0.792051880186E+03    0.19377E-03   -0.14484E-03  2004   0.337E-02    0.340E-01
DAV: 124    -0.792051657116E+03    0.22307E-03   -0.99611E-04  1992   0.261E-02    0.336E-01
DAV: 125    -0.792051813427E+03   -0.15631E-03   -0.37358E-04  1704   0.171E-02    0.335E-01
DAV: 126    -0.792052629534E+03   -0.81611E-03   -0.18959E-02  2784   0.107E-01    0.371E-01
DAV: 127    -0.792053922116E+03   -0.12926E-02   -0.87635E-02  3312   0.230E-01    0.425E-01
DAV: 128    -0.792054761643E+03   -0.83953E-03   -0.20561E-03  2424   0.431E-02    0.457E-01
DAV: 129    -0.792054850476E+03   -0.88833E-04   -0.98270E-05  1812   0.112E-02    0.464E-01
DAV: 130    -0.792054805480E+03    0.44996E-04   -0.50662E-05  1632   0.891E-03    0.464E-01
DAV: 131    -0.792054632270E+03    0.17321E-03   -0.51865E-04  1800   0.199E-02    0.468E-01
DAV: 132    -0.792054863094E+03   -0.23082E-03   -0.15765E-03  2004   0.336E-02    0.469E-01
DAV: 133    -0.792054709411E+03    0.15368E-03   -0.51735E-04  1776   0.194E-02    0.466E-01
DAV: 134    -0.792054744497E+03   -0.35086E-04   -0.20398E-05  1464   0.592E-03    0.463E-01
DAV: 135    -0.792054958427E+03   -0.21393E-03   -0.18326E-03  2088   0.341E-02    0.469E-01
DAV: 136    -0.792055079704E+03   -0.12128E-03   -0.67561E-04  1848   0.240E-02    0.468E-01
DAV: 137    -0.792055350332E+03   -0.27063E-03   -0.56201E-03  2664   0.599E-02    0.479E-01
DAV: 138    -0.792056033390E+03   -0.68306E-03   -0.22367E-02  3180   0.117E-01    0.507E-01
DAV: 139    -0.792056386004E+03   -0.35261E-03   -0.14744E-03  2124   0.322E-02    0.516E-01
DAV: 140    -0.792056439178E+03   -0.53175E-04   -0.51981E-05  1644   0.922E-03    0.523E-01
DAV: 141    -0.792056365435E+03    0.73743E-04   -0.58184E-04  1800   0.203E-02    0.520E-01
DAV: 142    -0.792056683022E+03   -0.31759E-03   -0.43797E-03  2328   0.524E-02    0.536E-01
DAV: 143    -0.792056595094E+03    0.87928E-04   -0.58768E-04  1860   0.229E-02    0.542E-01
DAV: 144    -0.792056679892E+03   -0.84798E-04   -0.44154E-04  1764   0.180E-02    0.547E-01
DAV: 145    -0.792056767101E+03   -0.87209E-04   -0.50113E-04  1764   0.188E-02    0.552E-01
DAV: 146    -0.792040637067E+03    0.16130E-01   -0.16542E+00  3348   0.997E-01    0.267E-01
DAV: 147    -0.792047699095E+03   -0.70620E-02   -0.83209E-03  2844   0.942E-02    0.205E-01
DAV: 148    -0.792048493503E+03   -0.79441E-03   -0.10185E-03  2712   0.330E-02    0.214E-01
DAV: 149    -0.792048830550E+03   -0.33705E-03   -0.12138E-03  2388   0.319E-02    0.232E-01
DAV: 150    -0.792049445936E+03   -0.61539E-03   -0.72252E-03  2412   0.685E-02    0.268E-01
DAV: 151    -0.792049680675E+03   -0.23474E-03   -0.36588E-03  2556   0.495E-02    0.295E-01
DAV: 152    -0.792049614310E+03    0.66366E-04   -0.39621E-04  1788   0.193E-02    0.310E-01
DAV: 153    -0.792049828959E+03   -0.21465E-03   -0.11830E-03  1848   0.297E-02    0.305E-01
DAV: 154    -0.792050153315E+03   -0.32436E-03   -0.28338E-03  2316   0.428E-02    0.302E-01
DAV: 155    -0.792050818876E+03   -0.66556E-03   -0.15531E-02  2820   0.979E-02    0.298E-01
DAV: 156    -0.792051869899E+03   -0.10510E-02   -0.43182E-02  3120   0.162E-01    0.306E-01
DAV: 157    -0.792052658833E+03   -0.78893E-03   -0.80542E-03  2340   0.720E-02    0.334E-01
DAV: 158    -0.792052895751E+03   -0.23692E-03   -0.56206E-04  1812   0.213E-02    0.343E-01
DAV: 159    -0.792052592717E+03    0.30303E-03   -0.26642E-03  2040   0.419E-02    0.350E-01
DAV: 160    -0.792051231611E+03    0.13611E-02   -0.30843E-02  2844   0.138E-01    0.347E-01
DAV: 161    -0.792049457198E+03    0.17744E-02   -0.40451E-02  3108   0.158E-01    0.281E-01
DAV: 162    -0.792047874734E+03    0.15825E-02   -0.46969E-02  3060   0.169E-01    0.280E-01
DAV: 163    -0.792047964436E+03   -0.89702E-04   -0.25443E-03  2328   0.440E-02    0.270E-01
DAV: 164    -0.792047626215E+03    0.33822E-03   -0.26837E-03  2352   0.427E-02    0.268E-01
DAV: 165    -0.792048687497E+03   -0.10613E-02   -0.18735E-02  2544   0.111E-01    0.258E-01
DAV: 166    -0.792049526027E+03   -0.83853E-03   -0.35284E-02  2964   0.149E-01    0.160E-01
DAV: 167    -0.792051270328E+03   -0.17443E-02   -0.19518E-01  3336   0.349E-01    0.152E-01
DAV: 168    -0.792053057259E+03   -0.17869E-02   -0.16906E-02  3120   0.108E-01    0.156E-01
DAV: 169    -0.792053749273E+03   -0.69201E-03   -0.89245E-03  2556   0.765E-02    0.163E-01
DAV: 170    -0.792054003250E+03   -0.25398E-03   -0.80526E-04  1980   0.256E-02    0.165E-01
DAV: 171    -0.792041571240E+03    0.12432E-01   -0.10646E+00  3324   0.824E-01    0.200E-01
DAV: 172    -0.792047543776E+03   -0.59725E-02   -0.10395E-02  2760   0.105E-01    0.129E-01
DAV: 173    -0.792049228638E+03   -0.16849E-02   -0.52090E-02  3108   0.185E-01    0.111E-01
DAV: 174    -0.792050416837E+03   -0.11882E-02   -0.22185E-02  2880   0.118E-01    0.141E-01
DAV: 175    -0.792051835103E+03   -0.14183E-02   -0.75463E-02  3168   0.215E-01    0.122E-01
DAV: 176    -0.792050847536E+03    0.98757E-03   -0.48487E-02  3060   0.183E-01    0.121E-01
DAV: 177    -0.792052701211E+03   -0.18537E-02   -0.19207E-01  3336   0.352E-01    0.104E-01
DAV: 178    -0.792054182405E+03   -0.14812E-02   -0.45547E-02  3204   0.173E-01    0.115E-01
DAV: 179    -0.792054902357E+03   -0.71995E-03   -0.15859E-03  2112   0.378E-02    0.140E-01
DAV: 180    -0.792054966531E+03   -0.64174E-04   -0.10054E-04  1872   0.115E-02    0.143E-01
DAV: 181    -0.792045882315E+03    0.90842E-02   -0.71140E-01  3372   0.677E-01    0.147E-01
DAV: 182    -0.792052178520E+03   -0.62962E-02   -0.14110E-01  3192   0.313E-01    0.950E-02
DAV: 183    -0.792053429819E+03   -0.12513E-02   -0.92158E-02  3228   0.241E-01    0.902E-02
DAV: 184    -0.792054623093E+03   -0.11933E-02   -0.57250E-02  3192   0.190E-01    0.127E-01
DAV: 185    -0.792055325730E+03   -0.70264E-03   -0.28204E-03  2460   0.459E-02    0.127E-01
DAV: 186    -0.792055617227E+03   -0.29150E-03   -0.51878E-03  2436   0.589E-02    0.129E-01
DAV: 187    -0.792055691954E+03   -0.74726E-04   -0.88613E-05  1836   0.124E-02    0.133E-01
DAV: 188    -0.792055757550E+03   -0.65596E-04   -0.33111E-04  1752   0.164E-02    0.128E-01
DAV: 189    -0.792055764916E+03   -0.73663E-05   -0.73519E-06  1380   0.540E-03
   1 F= -.79205576E+03 E0= -.79205576E+03  d E =-.118134E-05  mag=     3.9947
