       N       E                     dE             d eps       ncg     rms          rms(c)
DAV:   1     0.134004029370E+05    0.13400E+05   -0.30452E+05  2240   0.125E+03
DAV:   2     0.430031743344E+04   -0.91001E+04   -0.81452E+04  2800   0.342E+02
DAV:   3    -0.312360315713E+03   -0.46127E+04   -0.44649E+04  3200   0.233E+02
DAV:   4    -0.966919491549E+03   -0.65456E+03   -0.64945E+03  3520   0.108E+02
DAV:   5    -0.999518644743E+03   -0.32599E+02   -0.32246E+02  3880   0.315E+01    0.139E+02
DAV:   6    -0.669883267158E+03    0.32964E+03   -0.20585E+03  3040   0.579E+01    0.821E+01
DAV:   7    -0.692776316123E+03   -0.22893E+02   -0.15285E+03  3160   0.984E+01    0.102E+02
DAV:   8    -0.723047011898E+03   -0.30271E+02   -0.35170E+02  3800   0.320E+01    0.669E+01
DAV:   9    -0.673337683399E+03    0.49709E+02   -0.15549E+02  3600   0.217E+01    0.429E+01
DAV:  10    -0.668333637067E+03    0.50040E+01   -0.10354E+02  3480   0.148E+01    0.369E+01
DAV:  11    -0.660317306475E+03    0.80163E+01   -0.45829E+01  3560   0.112E+01    0.315E+01
DAV:  12    -0.665723164055E+03   -0.54059E+01   -0.56373E+01  4000   0.100E+01    0.604E+01
DAV:  13    -0.666433185146E+03   -0.71002E+00   -0.15186E+02  3800   0.131E+01    0.253E+01
DAV:  14    -0.673598451759E+03   -0.71653E+01   -0.30068E+01  3520   0.887E+00    0.189E+01
DAV:  15    -0.692304316777E+03   -0.18706E+02   -0.11437E+01  3400   0.496E+00    0.159E+01
DAV:  16    -0.706291093106E+03   -0.13987E+02   -0.78688E+00  3520   0.476E+00    0.136E+01
DAV:  17    -0.733181940998E+03   -0.26891E+02   -0.16840E+01  3120   0.554E+00    0.910E+00
DAV:  18    -0.753934983043E+03   -0.20753E+02   -0.15773E+01  3560   0.551E+00    0.722E+00
DAV:  19    -0.768386715437E+03   -0.14452E+02   -0.11980E+01  3440   0.418E+00    0.553E+00
DAV:  20    -0.775880973889E+03   -0.74943E+01   -0.74543E+00  3760   0.283E+00    0.927E+00
DAV:  21    -0.777787475929E+03   -0.19065E+01   -0.74625E-01  3960   0.127E+00    0.881E+00
DAV:  22    -0.781697785654E+03   -0.39103E+01   -0.12474E+00  3520   0.162E+00    0.755E+00
DAV:  23    -0.785962076757E+03   -0.42643E+01   -0.23563E+00  3480   0.231E+00    0.598E+00
DAV:  24    -0.788968194131E+03   -0.30061E+01   -0.16335E+00  3560   0.200E+00    0.484E+00
DAV:  25    -0.790801694922E+03   -0.18335E+01   -0.57011E-01  3600   0.127E+00    0.380E+00
DAV:  26    -0.791443355436E+03   -0.64166E+00   -0.24170E-01  3920   0.712E-01    0.332E+00
DAV:  27    -0.791760477199E+03   -0.31712E+00   -0.32699E-01  3640   0.885E-01    0.266E+00
DAV:  28    -0.791912056021E+03   -0.15158E+00   -0.49555E-01  3920   0.107E+00    0.200E+00
DAV:  29    -0.791951450459E+03   -0.39394E-01   -0.22159E-01  3960   0.663E-01    0.160E+00
DAV:  30    -0.791966895573E+03   -0.15445E-01   -0.88088E-02  4080   0.397E-01    0.139E+00
DAV:  31    -0.791986891088E+03   -0.19996E-01   -0.16268E-01  3760   0.507E-01    0.116E+00
DAV:  32    -0.792010059870E+03   -0.23169E-01   -0.20753E-01  3760   0.537E-01    0.896E-01
DAV:  33    -0.792027232088E+03   -0.17172E-01   -0.16680E-01  3800   0.479E-01    0.676E-01
DAV:  34    -0.792041101413E+03   -0.13869E-01   -0.13337E-01  3880   0.417E-01    0.474E-01
DAV:  35    -0.792049692980E+03   -0.85916E-02   -0.71776E-02  3840   0.293E-01    0.347E-01
DAV:  36    -0.792057000141E+03   -0.73072E-02   -0.10136E-01  3560   0.321E-01    0.207E-01
DAV:  37    -0.792061378170E+03   -0.43780E-02   -0.49346E-02  4000   0.207E-01    0.131E-01
DAV:  38    -0.792063213176E+03   -0.18350E-02   -0.16355E-02  4040   0.110E-01    0.112E-01
DAV:  39    -0.792063935299E+03   -0.72212E-03   -0.49815E-03  3760   0.624E-02    0.101E-01
DAV:  40    -0.792064397624E+03   -0.46233E-03   -0.21787E-03  3520   0.426E-02    0.826E-02
DAV:  41    -0.792064819208E+03   -0.42158E-03   -0.22602E-03  3240   0.430E-02    0.647E-02
DAV:  42    -0.792065115557E+03   -0.29635E-03   -0.72454E-04  3160   0.278E-02    0.469E-02
DAV:  43    -0.792065251441E+03   -0.13588E-03   -0.58836E-04  2880   0.225E-02    0.406E-02
DAV:  44    -0.792065331710E+03   -0.80269E-04   -0.20991E-04  2480   0.140E-02    0.380E-02
DAV:  45    -0.792065530500E+03   -0.19879E-03   -0.95502E-04  2760   0.270E-02    0.314E-02
DAV:  46    -0.792065820553E+03   -0.29005E-03   -0.23957E-03  3040   0.413E-02    0.225E-02
DAV:  47    -0.792066038339E+03   -0.21779E-03   -0.10394E-03  2520   0.271E-02    0.205E-02
DAV:  48    -0.792066156537E+03   -0.11820E-03   -0.33796E-04  2640   0.167E-02    0.213E-02
DAV:  49    -0.792066183215E+03   -0.26678E-04   -0.34048E-05  2120   0.708E-03    0.214E-02
DAV:  50    -0.792066161458E+03    0.21757E-04   -0.17423E-05  1880   0.555E-03    0.225E-02
DAV:  51    -0.792066326541E+03   -0.16508E-03   -0.99178E-04  2160   0.262E-02    0.217E-02
DAV:  52    -0.792066414980E+03   -0.88439E-04   -0.27213E-04  2280   0.151E-02    0.216E-02
DAV:  53    -0.792066490202E+03   -0.75222E-04   -0.22010E-04  2000   0.135E-02    0.220E-02
DAV:  54    -0.792066492197E+03   -0.19954E-05   -0.46631E-06  1680   0.424E-03
   1 F= -.79206649E+03 E0= -.79206649E+03  d E =-.744059E-06  mag=     4.0007
