       N       E                     dE             d eps       ncg     rms          rms(c)
DAV:   1     0.133491404537E+05    0.13349E+05   -0.30154E+05  2304   0.121E+03
DAV:   2     0.425937293007E+04   -0.90898E+04   -0.79040E+04  2832   0.333E+02
DAV:   3    -0.225477468817E+03   -0.44849E+04   -0.43749E+04  3144   0.225E+02
DAV:   4    -0.955393860430E+03   -0.72992E+03   -0.71942E+03  3456   0.979E+01
DAV:   5    -0.998964940870E+03   -0.43571E+02   -0.43147E+02  3888   0.323E+01    0.139E+02
DAV:   6    -0.668073980267E+03    0.33089E+03   -0.19128E+03  3024   0.562E+01    0.813E+01
DAV:   7    -0.694499500882E+03   -0.26426E+02   -0.13566E+03  3408   0.958E+01    0.928E+01
DAV:   8    -0.716083707082E+03   -0.21584E+02   -0.30638E+02  3936   0.302E+01    0.599E+01
DAV:   9    -0.670239426684E+03    0.45844E+02   -0.14736E+02  4056   0.200E+01    0.420E+01
DAV:  10    -0.667250429548E+03    0.29890E+01   -0.15019E+02  3504   0.170E+01    0.336E+01
DAV:  11    -0.663278247381E+03    0.39722E+01   -0.49229E+01  3768   0.110E+01    0.345E+01
DAV:  12    -0.665276259951E+03   -0.19980E+01   -0.79716E+01  4272   0.938E+00    0.429E+01
DAV:  13    -0.668025571190E+03   -0.27493E+01   -0.99502E+01  4008   0.102E+01    0.237E+01
DAV:  14    -0.675945516735E+03   -0.79199E+01   -0.18805E+01  3696   0.710E+00    0.232E+01
DAV:  15    -0.687138059017E+03   -0.11193E+02   -0.14014E+01  3600   0.540E+00    0.189E+01
DAV:  16    -0.702934624390E+03   -0.15797E+02   -0.25684E+01  3624   0.637E+00    0.266E+01
DAV:  17    -0.718367876067E+03   -0.15433E+02   -0.15309E+01  3744   0.576E+00    0.271E+01
DAV:  18    -0.729974262575E+03   -0.11606E+02   -0.18185E+01  3480   0.502E+00    0.177E+01
DAV:  19    -0.741150734660E+03   -0.11176E+02   -0.60642E+00  3600   0.415E+00    0.127E+01
DAV:  20    -0.751541817944E+03   -0.10391E+02   -0.11762E+01  3624   0.427E+00    0.858E+00
DAV:  21    -0.763175093074E+03   -0.11633E+02   -0.65372E+00  3360   0.350E+00    0.739E+00
DAV:  22    -0.774965662934E+03   -0.11791E+02   -0.81177E+00  3456   0.349E+00    0.601E+00
DAV:  23    -0.782107278541E+03   -0.71416E+01   -0.50108E+00  3480   0.274E+00    0.605E+00
DAV:  24    -0.784341035513E+03   -0.22338E+01   -0.34338E+00  3888   0.122E+00    0.107E+01
DAV:  25    -0.784326881558E+03    0.14154E-01   -0.20454E-01  4176   0.729E-01    0.106E+01
DAV:  26    -0.784304288161E+03    0.22593E-01   -0.97375E-02  4008   0.435E-01    0.104E+01
DAV:  27    -0.784410576428E+03   -0.10629E+00   -0.97050E-02  3576   0.516E-01    0.989E+00
DAV:  28    -0.784937514961E+03   -0.52694E+00   -0.14940E+00  3432   0.130E+00    0.437E+00
DAV:  29    -0.787383409232E+03   -0.24459E+01   -0.19768E+00  3480   0.159E+00    0.778E+00
DAV:  30    -0.788297823445E+03   -0.91441E+00   -0.11884E+00  3720   0.181E+00    0.718E+00
DAV:  31    -0.788534363451E+03   -0.23654E+00   -0.29984E-01  4056   0.819E-01    0.657E+00
DAV:  32    -0.788909967267E+03   -0.37560E+00   -0.27257E-01  3888   0.990E-01    0.585E+00
DAV:  33    -0.789368714438E+03   -0.45875E+00   -0.16782E-01  4200   0.706E-01    0.529E+00
DAV:  34    -0.790659825431E+03   -0.12911E+01   -0.57009E-01  3912   0.129E+00    0.442E+00
DAV:  35    -0.790929509680E+03   -0.26968E+00   -0.13905E-01  3984   0.525E-01    0.410E+00
DAV:  36    -0.791184337051E+03   -0.25483E+00   -0.13329E-01  4008   0.622E-01    0.405E+00
DAV:  37    -0.791408063881E+03   -0.22373E+00   -0.20922E+00  3912   0.616E-01    0.752E+00
DAV:  38    -0.791457901870E+03   -0.49838E-01   -0.33033E-02  3648   0.264E-01    0.763E+00
DAV:  39    -0.791475642903E+03   -0.17741E-01   -0.20303E-02  4296   0.107E-01    0.763E+00
DAV:  40    -0.791472257301E+03    0.33856E-02   -0.10851E-03  3864   0.457E-02    0.763E+00
DAV:  41    -0.791483580883E+03   -0.11324E-01   -0.14500E-03  4464   0.419E-02    0.761E+00
DAV:  42    -0.791494462418E+03   -0.10882E-01   -0.60755E-03  4104   0.486E-02    0.757E+00
DAV:  43    -0.791501748835E+03   -0.72864E-02   -0.86425E-04  3912   0.320E-02    0.754E+00
DAV:  44    -0.791549471623E+03   -0.47723E-01   -0.23284E-02  3816   0.215E-01    0.730E+00
DAV:  45    -0.791549444136E+03    0.27487E-04   -0.15556E-03  3648   0.521E-02    0.730E+00
DAV:  46    -0.791568474381E+03   -0.19030E-01   -0.38737E-03  4248   0.603E-02    0.732E+00
DAV:  47    -0.791568228462E+03    0.24592E-03   -0.15646E-04  3480   0.175E-02    0.732E+00
DAV:  48    -0.791572273490E+03   -0.40450E-02   -0.19227E-04  3768   0.250E-02    0.734E+00
DAV:  49    -0.791575481973E+03   -0.32085E-02   -0.26517E-04  3960   0.210E-02    0.736E+00
DAV:  50    -0.791577501445E+03   -0.20195E-02   -0.16535E-03  3888   0.429E-02    0.732E+00
DAV:  51    -0.791668624725E+03   -0.91123E-01   -0.90324E-03  3864   0.148E-01    0.727E+00
DAV:  52    -0.791700012785E+03   -0.31388E-01   -0.13120E-02  3912   0.203E-01    0.710E+00
DAV:  53    -0.791713354069E+03   -0.13341E-01   -0.29431E-02  3936   0.183E-01    0.705E+00
DAV:  54    -0.791724210928E+03   -0.10857E-01   -0.11836E-02  4128   0.134E-01    0.713E+00
DAV:  55    -0.791743348640E+03   -0.19138E-01   -0.23993E-02  3672   0.295E-01    0.705E+00
DAV:  56    -0.791898119697E+03   -0.15477E+00   -0.13224E-01  3528   0.759E-01    0.621E+00
DAV:  57    -0.791913243017E+03   -0.15123E-01   -0.47148E-02  3816   0.295E-01    0.601E+00
DAV:  58    -0.791916676253E+03   -0.34332E-02   -0.43865E-03  4464   0.799E-02    0.598E+00
DAV:  59    -0.791915383111E+03    0.12931E-02   -0.72956E-04  4080   0.419E-02    0.600E+00
DAV:  60    -0.791923637747E+03   -0.82546E-02   -0.16347E-03  3744   0.933E-02    0.590E+00
DAV:  61    -0.792017733452E+03   -0.94096E-01   -0.58685E-02  3696   0.531E-01    0.540E+00
DAV:  62    -0.792033954181E+03   -0.16221E-01   -0.65788E-02  3600   0.524E-01    0.480E+00
DAV:  63    -0.792062248210E+03   -0.28294E-01   -0.47300E-02  3864   0.411E-01    0.430E+00
DAV:  64    -0.792077289927E+03   -0.15042E-01   -0.51902E-02  3720   0.430E-01    0.380E+00
DAV:  65    -0.792079956605E+03   -0.26667E-02   -0.45759E-02  3864   0.357E-01    0.344E+00
DAV:  66    -0.792080506225E+03   -0.54962E-03   -0.50081E-02  3720   0.435E-01    0.304E+00
DAV:  67    -0.792074151224E+03    0.63550E-02   -0.52576E-02  3840   0.405E-01    0.273E+00
DAV:  68    -0.792065535777E+03    0.86154E-02   -0.44864E-02  4176   0.332E-01    0.250E+00
DAV:  69    -0.792059096700E+03    0.64391E-02   -0.22570E-02  3888   0.240E-01    0.234E+00
DAV:  70    -0.792049844002E+03    0.92527E-02   -0.37855E-02  4200   0.205E-01    0.228E+00
DAV:  71    -0.792055096766E+03   -0.52528E-02   -0.47352E-02  4008   0.200E-01    0.236E+00
DAV:  72    -0.792060887430E+03   -0.57907E-02   -0.19432E-02  3840   0.215E-01    0.229E+00
DAV:  73    -0.792079363170E+03   -0.18476E-01   -0.88139E-02  3672   0.320E-01    0.240E+00
DAV:  74    -0.792088239554E+03   -0.88764E-02   -0.36397E-02  3744   0.218E-01    0.249E+00
DAV:  75    -0.792086380944E+03    0.18586E-02   -0.10979E-02  3600   0.150E-01    0.242E+00
DAV:  76    -0.792079888763E+03    0.64922E-02   -0.50937E-02  3648   0.301E-01    0.227E+00
DAV:  77    -0.792067040242E+03    0.12849E-01   -0.93146E-02  3768   0.357E-01    0.205E+00
DAV:  78    -0.792060604834E+03    0.64354E-02   -0.20382E-02  3864   0.186E-01    0.193E+00
DAV:  79    -0.792057531611E+03    0.30732E-02   -0.87770E-03  4128   0.109E-01    0.189E+00
DAV:  80    -0.792056106700E+03    0.14249E-02   -0.19474E-03  3840   0.543E-02    0.186E+00
DAV:  81    -0.792017016113E+03    0.39091E-01   -0.47320E-01  3648   0.102E+00    0.176E+00
DAV:  82    -0.792016069585E+03    0.94653E-03   -0.78716E-02  3672   0.348E-01    0.168E+00
DAV:  83    -0.792017603075E+03   -0.15335E-02   -0.88853E-03  4368   0.122E-01    0.171E+00
DAV:  84    -0.792010268100E+03    0.73350E-02   -0.76266E-02  3648   0.267E-01    0.168E+00
DAV:  85    -0.792004863407E+03    0.54047E-02   -0.54474E-02  3672   0.229E-01    0.168E+00
DAV:  86    -0.791842794078E+03    0.16207E+00   -0.19198E+00  3576   0.145E+00    0.146E+00
DAV:  87    -0.791852999740E+03   -0.10206E-01   -0.41127E-02  3480   0.253E-01    0.141E+00
DAV:  88    -0.791852158299E+03    0.84144E-03   -0.46432E-03  4416   0.691E-02    0.140E+00
DAV:  89    -0.791854763506E+03   -0.26052E-02   -0.18725E-03  3840   0.554E-02    0.140E+00
DAV:  90    -0.791856871450E+03   -0.21079E-02   -0.26188E-03  3864   0.570E-02    0.140E+00
DAV:  91    -0.791920055099E+03   -0.63184E-01   -0.14031E-01  3720   0.686E-01    0.128E+00
DAV:  92    -0.791981297307E+03   -0.61242E-01   -0.31522E-01  3552   0.593E-01    0.837E-01
DAV:  93    -0.792023637786E+03   -0.42340E-01   -0.14059E-01  3768   0.363E-01    0.566E-01
DAV:  94    -0.792042027702E+03   -0.18390E-01   -0.37308E-01  3528   0.500E-01    0.469E-01
DAV:  95    -0.792041006120E+03    0.10216E-02   -0.75814E-02  3672   0.245E-01    0.398E-01
DAV:  96    -0.792041944723E+03   -0.93860E-03   -0.14595E-02  3960   0.110E-01    0.366E-01
DAV:  97    -0.792040906764E+03    0.10380E-02   -0.18261E-02  3720   0.108E-01    0.340E-01
DAV:  98    -0.792041683462E+03   -0.77670E-03   -0.19558E-02  3696   0.987E-02    0.327E-01
DAV:  99    -0.792048455552E+03   -0.67721E-02   -0.10094E-01  3528   0.205E-01    0.288E-01
DAV: 100    -0.792056189934E+03   -0.77344E-02   -0.10171E-01  3576   0.209E-01    0.250E-01
DAV: 101    -0.792063781537E+03   -0.75916E-02   -0.93866E-02  3648   0.220E-01    0.216E-01
DAV: 102    -0.792069499382E+03   -0.57178E-02   -0.38958E-02  3696   0.144E-01    0.184E-01
DAV: 103    -0.792071977567E+03   -0.24782E-02   -0.81031E-03  3672   0.724E-02    0.148E-01
DAV: 104    -0.792073262914E+03   -0.12853E-02   -0.69724E-03  3648   0.707E-02    0.119E-01
DAV: 105    -0.792074113494E+03   -0.85058E-03   -0.39101E-03  3504   0.526E-02    0.999E-02
DAV: 106    -0.792074533903E+03   -0.42041E-03   -0.13766E-03  3384   0.341E-02    0.896E-02
DAV: 107    -0.792074722837E+03   -0.18893E-03   -0.72426E-04  2664   0.250E-02    0.812E-02
DAV: 108    -0.792074813394E+03   -0.90558E-04   -0.90297E-04  2856   0.267E-02    0.670E-02
DAV: 109    -0.792074942507E+03   -0.12911E-03   -0.10641E-03  2736   0.285E-02    0.599E-02
DAV: 110    -0.792075168641E+03   -0.22613E-03   -0.16880E-03  2976   0.340E-02    0.521E-02
DAV: 111    -0.792075398731E+03   -0.23009E-03   -0.28096E-03  2904   0.437E-02    0.393E-02
DAV: 112    -0.792075593914E+03   -0.19518E-03   -0.14651E-03  2688   0.312E-02    0.365E-02
DAV: 113    -0.792075689890E+03   -0.95977E-04   -0.24342E-04  2064   0.144E-02    0.341E-02
DAV: 114    -0.792075777141E+03   -0.87251E-04   -0.24642E-04  2016   0.144E-02    0.318E-02
DAV: 115    -0.792075931049E+03   -0.15391E-03   -0.95069E-04  2472   0.254E-02    0.262E-02
DAV: 116    -0.792076219096E+03   -0.28805E-03   -0.35424E-03  2760   0.472E-02    0.199E-02
DAV: 117    -0.792076465128E+03   -0.24603E-03   -0.35496E-03  2904   0.470E-02    0.190E-02
DAV: 118    -0.792076666835E+03   -0.20171E-03   -0.25401E-03  2400   0.397E-02    0.232E-02
DAV: 119    -0.792076810958E+03   -0.14412E-03   -0.11956E-03  2184   0.278E-02    0.256E-02
DAV: 120    -0.792076927671E+03   -0.11671E-03   -0.81803E-04  2160   0.239E-02    0.299E-02
DAV: 121    -0.792077046868E+03   -0.11920E-03   -0.93336E-04  2136   0.252E-02    0.342E-02
DAV: 122    -0.792077295356E+03   -0.24849E-03   -0.46256E-03  2520   0.534E-02    0.430E-02
DAV: 123    -0.792077680815E+03   -0.38546E-03   -0.11019E-02  3240   0.808E-02    0.577E-02
DAV: 124    -0.792077930827E+03   -0.25001E-03   -0.35479E-03  2616   0.461E-02    0.627E-02
DAV: 125    -0.792078050913E+03   -0.12009E-03   -0.88621E-04  2088   0.241E-02    0.652E-02
DAV: 126    -0.792078046194E+03    0.47190E-05   -0.35956E-05  1680   0.757E-03
   1 F= -.79207805E+03 E0= -.79207805E+03  d E =-.864169E-06  mag=     3.9991
