       N       E                     dE             d eps       ncg     rms          rms(c)
DAV:   1     0.133627314450E+05    0.13363E+05   -0.30270E+05  2280   0.123E+03
DAV:   2     0.431233851169E+04   -0.90504E+04   -0.79805E+04  2820   0.336E+02
DAV:   3    -0.261655771560E+03   -0.45740E+04   -0.44357E+04  3180   0.229E+02
DAV:   4    -0.966229337540E+03   -0.70457E+03   -0.69706E+03  3600   0.104E+02
DAV:   5    -0.999275934193E+03   -0.33047E+02   -0.32646E+02  3900   0.303E+01    0.139E+02
DAV:   6    -0.668747634829E+03    0.33053E+03   -0.19676E+03  3060   0.570E+01    0.830E+01
DAV:   7    -0.699180080548E+03   -0.30432E+02   -0.15413E+03  3360   0.984E+01    0.894E+01
DAV:   8    -0.716499885838E+03   -0.17320E+02   -0.29957E+02  3870   0.308E+01    0.587E+01
DAV:   9    -0.673409017186E+03    0.43091E+02   -0.14682E+02  3960   0.210E+01    0.418E+01
DAV:  10    -0.669807137807E+03    0.36019E+01   -0.12024E+02  3390   0.157E+01    0.316E+01
DAV:  11    -0.665745801474E+03    0.40613E+01   -0.39236E+01  3690   0.982E+00    0.328E+01
DAV:  12    -0.666565118950E+03   -0.81932E+00   -0.58002E+01  4140   0.881E+00    0.371E+01
DAV:  13    -0.669839558359E+03   -0.32744E+01   -0.71694E+01  3780   0.908E+00    0.213E+01
DAV:  14    -0.684128001004E+03   -0.14288E+02   -0.32224E+01  3690   0.739E+00    0.490E+01
DAV:  15    -0.684793576009E+03   -0.66558E+00   -0.25090E+01  3960   0.617E+00    0.154E+01
DAV:  16    -0.707933462590E+03   -0.23140E+02   -0.36206E+01  3510   0.671E+00    0.415E+01
DAV:  17    -0.714431053169E+03   -0.64976E+01   -0.14041E+01  3840   0.550E+00    0.180E+01
DAV:  18    -0.730565173790E+03   -0.16134E+02   -0.15372E+01  3540   0.540E+00    0.156E+01
DAV:  19    -0.745352919797E+03   -0.14788E+02   -0.11737E+01  3360   0.507E+00    0.975E+00
DAV:  20    -0.759355730278E+03   -0.14003E+02   -0.14790E+01  3570   0.428E+00    0.729E+00
DAV:  21    -0.771144808107E+03   -0.11789E+02   -0.86682E+00  3570   0.396E+00    0.606E+00
DAV:  22    -0.780105663411E+03   -0.89609E+01   -0.67588E+00  3660   0.310E+00    0.979E+00
DAV:  23    -0.781588427918E+03   -0.14828E+01   -0.23743E+00  3990   0.146E+00    0.115E+01
DAV:  24    -0.781809658024E+03   -0.22123E+00   -0.10927E-01  4200   0.472E-01    0.115E+01
DAV:  25    -0.782630540010E+03   -0.82088E+00   -0.21306E-01  3780   0.698E-01    0.109E+01
DAV:  26    -0.784573334893E+03   -0.19428E+01   -0.84011E-01  3630   0.136E+00    0.936E+00
DAV:  27    -0.787056353500E+03   -0.24830E+01   -0.25630E+00  3510   0.256E+00    0.704E+00
DAV:  28    -0.788376238922E+03   -0.13199E+01   -0.12224E+00  3720   0.138E+00    0.786E+00
DAV:  29    -0.788318509539E+03    0.57729E-01   -0.18919E-01  4020   0.491E-01    0.621E+00
DAV:  30    -0.788457595429E+03   -0.13909E+00   -0.10957E-01  4050   0.394E-01    0.565E+00
DAV:  31    -0.788765925768E+03   -0.30833E+00   -0.18041E-01  3720   0.637E-01    0.547E+00
DAV:  32    -0.788962821497E+03   -0.19690E+00   -0.16984E-01  3810   0.751E-01    0.481E+00
DAV:  33    -0.789759069493E+03   -0.79625E+00   -0.28771E+00  3840   0.117E+00    0.997E+00
DAV:  34    -0.789967253422E+03   -0.20818E+00   -0.42447E-01  3810   0.619E-01    0.804E+00
DAV:  35    -0.790045205561E+03   -0.77952E-01   -0.79516E-02  3990   0.187E-01    0.905E+00
DAV:  36    -0.790095018270E+03   -0.49813E-01   -0.22357E-01  4110   0.209E-01    0.748E+00
DAV:  37    -0.790146512088E+03   -0.51494E-01   -0.24990E-02  3630   0.110E-01    0.743E+00
DAV:  38    -0.790295071154E+03   -0.14856E+00   -0.31069E-01  3720   0.300E-01    0.735E+00
DAV:  39    -0.790466165420E+03   -0.17109E+00   -0.85017E-02  3810   0.315E-01    0.716E+00
DAV:  40    -0.790506357477E+03   -0.40192E-01   -0.25258E-02  3840   0.129E-01    0.726E+00
DAV:  41    -0.790571033476E+03   -0.64676E-01   -0.76070E-02  3870   0.230E-01    0.691E+00
DAV:  42    -0.790626512218E+03   -0.55479E-01   -0.40311E-02  3900   0.160E-01    0.682E+00
DAV:  43    -0.790661017774E+03   -0.34506E-01   -0.29836E-02  3780   0.159E-01    0.673E+00
DAV:  44    -0.790874007308E+03   -0.21299E+00   -0.18364E-01  3570   0.514E-01    0.700E+00
DAV:  45    -0.790869231056E+03    0.47763E-02   -0.12668E-02  3480   0.149E-01    0.694E+00
DAV:  46    -0.790865071863E+03    0.41592E-02   -0.14052E-03  4530   0.444E-02    0.697E+00
DAV:  47    -0.790902149803E+03   -0.37078E-01   -0.48763E-02  4140   0.115E-01    0.687E+00
DAV:  48    -0.790905912785E+03   -0.37630E-02   -0.17324E-03  3660   0.378E-02    0.685E+00
DAV:  49    -0.790951129586E+03   -0.45217E-01   -0.45536E-02  3690   0.211E-01    0.688E+00
DAV:  50    -0.790946564511E+03    0.45651E-02   -0.89890E-03  3780   0.666E-02    0.685E+00
DAV:  51    -0.791159183209E+03   -0.21262E+00   -0.37819E-01  3870   0.475E-01    0.957E+00
DAV:  52    -0.791144243059E+03    0.14940E-01   -0.18399E-02  3510   0.149E-01    0.944E+00
DAV:  53    -0.791165736626E+03   -0.21494E-01   -0.11290E-02  4200   0.104E-01    0.958E+00
DAV:  54    -0.791160499723E+03    0.52369E-02   -0.43738E-02  4080   0.138E-01    0.929E+00
DAV:  55    -0.791193187229E+03   -0.32688E-01   -0.20758E-02  3870   0.111E-01    0.972E+00
DAV:  56    -0.791403025819E+03   -0.20984E+00   -0.10981E+00  3660   0.879E-01    0.125E+01
DAV:  57    -0.791409906713E+03   -0.68809E-02   -0.21953E-01  3600   0.418E-01    0.132E+01
DAV:  58    -0.791446774034E+03   -0.36867E-01   -0.56405E-02  3870   0.151E-01    0.142E+01
DAV:  59    -0.791484897188E+03   -0.38123E-01   -0.23519E-02  3900   0.162E-01    0.146E+01
DAV:  60    -0.791505745397E+03   -0.20848E-01   -0.17249E-02  3900   0.117E-01    0.147E+01
DAV:  61    -0.791754301658E+03   -0.24856E+00   -0.18114E-01  3720   0.795E-01    0.157E+01
DAV:  62    -0.791706184571E+03    0.48117E-01   -0.11969E-01  3600   0.325E-01    0.148E+01
DAV:  63    -0.791710213665E+03   -0.40291E-02   -0.30439E-03  3930   0.835E-02    0.148E+01
DAV:  64    -0.791717336693E+03   -0.71230E-02   -0.54718E-03  3960   0.500E-02    0.152E+01
DAV:  65    -0.791643229298E+03    0.74107E-01   -0.84761E-02  3840   0.273E-01    0.150E+01
DAV:  66    -0.791685644012E+03   -0.42415E-01   -0.78792E-02  3630   0.298E-01    0.166E+01
DAV:  67    -0.791679681721E+03    0.59623E-02   -0.32337E-03  3480   0.894E-02    0.166E+01
DAV:  68    -0.791682209093E+03   -0.25274E-02   -0.44796E-04  4080   0.291E-02    0.166E+01
DAV:  69    -0.791674972749E+03    0.72363E-02   -0.13084E-03  3510   0.285E-02    0.165E+01
DAV:  70    -0.791647840055E+03    0.27133E-01   -0.29497E-02  3600   0.139E-01    0.164E+01
DAV:  71    -0.791606767225E+03    0.41073E-01   -0.27056E-01  3870   0.311E-01    0.140E+01
DAV:  72    -0.791569527873E+03    0.37239E-01   -0.49665E-02  3870   0.228E-01    0.134E+01
DAV:  73    -0.791575425194E+03   -0.58973E-02   -0.97270E-03  3720   0.122E-01    0.133E+01
DAV:  74    -0.791613840164E+03   -0.38415E-01   -0.24805E-01  3690   0.370E-01    0.170E+01
DAV:  75    -0.791615459458E+03   -0.16193E-02   -0.31555E-02  3540   0.145E-01    0.164E+01
DAV:  76    -0.791433328009E+03    0.18213E+00   -0.12016E+01  3330   0.535E+00    0.150E+01
DAV:  77    -0.790563657608E+03    0.86967E+00   -0.38415E+00  3720   0.313E+00    0.982E+00
DAV:  78    -0.790649397700E+03   -0.85740E-01   -0.12066E+00  3990   0.113E+00    0.942E+00
DAV:  79    -0.790684630697E+03   -0.35233E-01   -0.12797E-01  3960   0.354E-01    0.935E+00
DAV:  80    -0.790632975306E+03    0.51655E-01   -0.28225E-02  4380   0.152E-01    0.935E+00
DAV:  81    -0.790567485809E+03    0.65489E-01   -0.57027E-01  3690   0.719E-01    0.941E+00
DAV:  82    -0.790602788309E+03   -0.35303E-01   -0.18022E-02  3630   0.156E-01    0.942E+00
DAV:  83    -0.790520144631E+03    0.82644E-01   -0.38593E-02  3900   0.166E-01    0.938E+00
DAV:  84    -0.790483628669E+03    0.36516E-01   -0.67528E-01  3990   0.397E-01    0.934E+00
DAV:  85    -0.790484323612E+03   -0.69494E-03   -0.29191E-02  3570   0.138E-01    0.933E+00
DAV:  86    -0.790805966558E+03   -0.32164E+00   -0.10694E+00  3660   0.109E+00    0.908E+00
DAV:  87    -0.790962463790E+03   -0.15650E+00   -0.89972E-01  3840   0.802E-01    0.907E+00
DAV:  88    -0.791034388260E+03   -0.71924E-01   -0.73737E-02  3780   0.272E-01    0.908E+00
DAV:  89    -0.791049680960E+03   -0.15293E-01   -0.62357E-03  3870   0.104E-01    0.909E+00
DAV:  90    -0.791066330743E+03   -0.16650E-01   -0.33851E-02  3960   0.195E-01    0.917E+00
DAV:  91    -0.791227130708E+03   -0.16080E+00   -0.37640E-01  4020   0.691E-01    0.915E+00
DAV:  92    -0.791404592254E+03   -0.17746E+00   -0.11455E-01  3840   0.459E-01    0.916E+00
DAV:  93    -0.791661593934E+03   -0.25700E+00   -0.83332E-01  3690   0.924E-01    0.927E+00
DAV:  94    -0.791453154604E+03    0.20844E+00   -0.10859E+00  3840   0.118E+00    0.122E+01
DAV:  95    -0.791581521997E+03   -0.12837E+00   -0.86058E-02  3690   0.630E-01    0.121E+01
DAV:  96    -0.791097827783E+03    0.48369E+00   -0.34473E+00  3630   0.238E+00    0.933E+00
DAV:  97    -0.791130582592E+03   -0.32755E-01   -0.14204E+00  3780   0.167E+00    0.948E+00
DAV:  98    -0.790867795129E+03    0.26279E+00   -0.48307E-01  3750   0.108E+00    0.989E+00
DAV:  99    -0.790655693179E+03    0.21210E+00   -0.26879E-01  3870   0.943E-01    0.142E+01
DAV: 100    -0.790668857313E+03   -0.13164E-01   -0.53558E-02  3480   0.335E-01    0.146E+01
DAV: 101    -0.791142993384E+03   -0.47414E+00   -0.34208E+00  3450   0.346E+00    0.887E+00
DAV: 102    -0.791609544364E+03   -0.46655E+00   -0.11422E+00  3750   0.232E+00    0.822E+00
DAV: 103    -0.791721153792E+03   -0.11161E+00   -0.94775E-01  3960   0.148E+00    0.833E+00
DAV: 104    -0.791497176509E+03    0.22398E+00   -0.52944E-01  3690   0.911E-01    0.854E+00
DAV: 105    -0.791017482213E+03    0.47969E+00   -0.96885E-01  3780   0.127E+00    0.891E+00
DAV: 106    -0.790859387627E+03    0.15809E+00   -0.13685E+00  3750   0.141E+00    0.889E+00
DAV: 107    -0.790792320325E+03    0.67067E-01   -0.16735E-01  3720   0.553E-01    0.894E+00
DAV: 108    -0.790774558646E+03    0.17762E-01   -0.12885E-02  3960   0.147E-01    0.894E+00
DAV: 109    -0.790731279812E+03    0.43279E-01   -0.18264E-02  3900   0.212E-01    0.896E+00
DAV: 110    -0.790683804090E+03    0.47476E-01   -0.48062E-02  3720   0.287E-01    0.897E+00
DAV: 111    -0.791372241540E+03   -0.68844E+00   -0.13575E+01  3360   0.445E+00    0.799E+00
DAV: 112    -0.791652351782E+03   -0.28011E+00   -0.86788E-01  3810   0.167E+00    0.758E+00
DAV: 113    -0.791532771837E+03    0.11958E+00   -0.68458E-01  3690   0.108E+00    0.757E+00
DAV: 114    -0.791190659450E+03    0.34211E+00   -0.31317E-01  3750   0.791E-01    0.769E+00
DAV: 115    -0.790756266081E+03    0.43439E+00   -0.27084E-01  3690   0.648E-01    0.792E+00
DAV: 116    -0.791471416146E+03   -0.71515E+00   -0.50789E+00  3360   0.318E+00    0.659E+00
DAV: 117    -0.791513215345E+03   -0.41799E-01   -0.17921E+00  3720   0.203E+00    0.603E+00
DAV: 118    -0.791352875836E+03    0.16034E+00   -0.77470E-01  3630   0.132E+00    0.585E+00
DAV: 119    -0.791225646964E+03    0.12723E+00   -0.37061E-01  3810   0.796E-01    0.585E+00
DAV: 120    -0.791136145894E+03    0.89501E-01   -0.42488E-01  3750   0.831E-01    0.588E+00
DAV: 121    -0.790443922998E+03    0.69222E+00   -0.76658E+00  3600   0.351E+00    0.725E+00
DAV: 122    -0.791299171427E+03   -0.85525E+00   -0.20220E+00  3750   0.177E+00    0.842E+00
DAV: 123    -0.791281304665E+03    0.17867E-01   -0.14801E-01  3600   0.458E-01    0.726E+00
DAV: 124    -0.790925465813E+03    0.35584E+00   -0.24176E+00  3510   0.124E+00    0.699E+00
DAV: 125    -0.790879697657E+03    0.45768E-01   -0.25115E-01  3810   0.690E-01    0.720E+00
DAV: 126    -0.790766041262E+03    0.11366E+00   -0.61026E-01  3780   0.790E-01    0.739E+00
DAV: 127    -0.790514508752E+03    0.25153E+00   -0.95122E-02  3870   0.400E-01    0.758E+00
DAV: 128    -0.790323282663E+03    0.19123E+00   -0.30228E-02  3750   0.217E-01    0.768E+00
DAV: 129    -0.790304691557E+03    0.18591E-01   -0.37938E-03  3570   0.714E-02    0.768E+00
DAV: 130    -0.790341287314E+03   -0.36596E-01   -0.18243E-02  3660   0.168E-01    0.778E+00
DAV: 131    -0.790421522913E+03   -0.80236E-01   -0.11093E-01  3600   0.463E-01    0.801E+00
DAV: 132    -0.790564652043E+03   -0.14313E+00   -0.16168E-01  3690   0.412E-01    0.811E+00
DAV: 133    -0.790634561274E+03   -0.69909E-01   -0.35020E-01  3660   0.601E-01    0.838E+00
DAV: 134    -0.790718769282E+03   -0.84208E-01   -0.53796E-01  3690   0.650E-01    0.866E+00
DAV: 135    -0.790754055301E+03   -0.35286E-01   -0.37537E-01  3720   0.470E-01    0.879E+00
DAV: 136    -0.791099123748E+03   -0.34507E+00   -0.40725E-01  3750   0.683E-01    0.892E+00
DAV: 137    -0.791092829355E+03    0.62944E-02   -0.31161E-02  3810   0.262E-01    0.892E+00
DAV: 138    -0.791068791153E+03    0.24038E-01   -0.25324E-02  3810   0.168E-01    0.894E+00
DAV: 139    -0.790992490245E+03    0.76301E-01   -0.12247E-01  3660   0.378E-01    0.908E+00
DAV: 140    -0.790979031759E+03    0.13458E-01   -0.22954E-02  3870   0.148E-01    0.913E+00
DAV: 141    -0.791739571839E+03   -0.76054E+00   -0.43917E+00  3630   0.311E+00    0.633E+00
DAV: 142    -0.791678346473E+03    0.61225E-01   -0.39031E+00  3690   0.264E+00    0.579E+00
DAV: 143    -0.791887894807E+03   -0.20955E+00   -0.25666E+00  3570   0.216E+00    0.458E+00
DAV: 144    -0.792004144139E+03   -0.11625E+00   -0.73600E-01  3840   0.103E+00    0.386E+00
DAV: 145    -0.791958534090E+03    0.45610E-01   -0.18351E+00  3600   0.197E+00    0.309E+00
DAV: 146    -0.791486325804E+03    0.47221E+00   -0.27480E+00  3600   0.336E+00    0.267E+00
DAV: 147    -0.791583631369E+03   -0.97306E-01   -0.35971E-01  3600   0.781E-01    0.269E+00
DAV: 148    -0.791608542980E+03   -0.24912E-01   -0.46975E-02  4380   0.262E-01    0.266E+00
DAV: 149    -0.791679040976E+03   -0.70498E-01   -0.32396E-02  3810   0.331E-01    0.262E+00
DAV: 150    -0.791801215097E+03   -0.12217E+00   -0.91961E-02  3660   0.500E-01    0.242E+00
DAV: 151    -0.791917845967E+03   -0.11663E+00   -0.32047E-01  3630   0.849E-01    0.219E+00
DAV: 152    -0.791953771887E+03   -0.35926E-01   -0.11323E-01  3870   0.408E-01    0.194E+00
DAV: 153    -0.791969703222E+03   -0.15931E-01   -0.18333E-01  3840   0.555E-01    0.165E+00
DAV: 154    -0.791984821520E+03   -0.15118E-01   -0.25610E-01  3750   0.543E-01    0.144E+00
DAV: 155    -0.791993506222E+03   -0.86847E-02   -0.10473E-01  3840   0.356E-01    0.130E+00
DAV: 156    -0.791993888698E+03   -0.38248E-03   -0.54348E-02  3630   0.271E-01    0.119E+00
DAV: 157    -0.791992334159E+03    0.15545E-02   -0.22859E-02  3750   0.239E-01    0.106E+00
DAV: 158    -0.791987451705E+03    0.48825E-02   -0.16109E-02  3750   0.202E-01    0.942E-01
DAV: 159    -0.791987581211E+03   -0.12951E-03   -0.81283E-03  3960   0.132E-01    0.857E-01
DAV: 160    -0.791989098083E+03   -0.15169E-02   -0.13214E-02  3690   0.157E-01    0.750E-01
DAV: 161    -0.791993428559E+03   -0.43305E-02   -0.57106E-02  3780   0.296E-01    0.599E-01
DAV: 162    -0.791998664425E+03   -0.52359E-02   -0.38668E-02  3780   0.236E-01    0.480E-01
DAV: 163    -0.792005425245E+03   -0.67608E-02   -0.60013E-02  3630   0.278E-01    0.341E-01
DAV: 164    -0.792015190534E+03   -0.97653E-02   -0.95344E-02  3720   0.324E-01    0.228E-01
DAV: 165    -0.792023384891E+03   -0.81944E-02   -0.92312E-02  3780   0.283E-01    0.203E-01
DAV: 166    -0.792026310632E+03   -0.29257E-02   -0.71043E-03  3840   0.110E-01    0.175E-01
DAV: 167    -0.792027627031E+03   -0.13164E-02   -0.32468E-03  3780   0.573E-02    0.160E-01
DAV: 168    -0.792031174817E+03   -0.35478E-02   -0.30833E-02  3450   0.144E-01    0.119E-01
DAV: 169    -0.792034287073E+03   -0.31123E-02   -0.32244E-02  3600   0.146E-01    0.894E-02
DAV: 170    -0.792036189789E+03   -0.19027E-02   -0.11623E-02  3570   0.912E-02    0.745E-02
DAV: 171    -0.792037871422E+03   -0.16816E-02   -0.60320E-03  3570   0.674E-02    0.536E-02
DAV: 172    -0.792039671209E+03   -0.17998E-02   -0.62164E-03  3600   0.646E-02    0.437E-02
DAV: 173    -0.792041290839E+03   -0.16196E-02   -0.84939E-03  3360   0.716E-02    0.406E-02
DAV: 174    -0.792042246392E+03   -0.95555E-03   -0.31430E-03  2880   0.436E-02    0.397E-02
DAV: 175    -0.792042896968E+03   -0.65058E-03   -0.14383E-03  2790   0.303E-02    0.388E-02
DAV: 176    -0.792043427954E+03   -0.53099E-03   -0.92393E-04  2640   0.257E-02    0.379E-02
DAV: 177    -0.792043772182E+03   -0.34423E-03   -0.60774E-04  2460   0.209E-02    0.364E-02
DAV: 178    -0.792044295960E+03   -0.52378E-03   -0.16497E-03  2520   0.321E-02    0.338E-02
DAV: 179    -0.792045324021E+03   -0.10281E-02   -0.78834E-03  3120   0.670E-02    0.329E-02
DAV: 180    -0.792046126002E+03   -0.80198E-03   -0.68242E-03  2580   0.614E-02    0.362E-02
DAV: 181    -0.792046438194E+03   -0.31219E-03   -0.12010E-03  2430   0.271E-02    0.358E-02
DAV: 182    -0.792046389738E+03    0.48456E-04   -0.54826E-05  1980   0.937E-03    0.377E-02
DAV: 183    -0.792046489400E+03   -0.99662E-04   -0.15289E-04  1920   0.112E-02    0.382E-02
DAV: 184    -0.792046308170E+03    0.18123E-03   -0.42438E-04  1920   0.171E-02    0.379E-02
DAV: 185    -0.792046808067E+03   -0.49990E-03   -0.36824E-03  2430   0.453E-02    0.421E-02
DAV: 186    -0.792047155941E+03   -0.34787E-03   -0.21752E-03  2370   0.353E-02    0.445E-02
DAV: 187    -0.792047211518E+03   -0.55578E-04   -0.67981E-05  1860   0.890E-03    0.489E-02
DAV: 188    -0.792046390253E+03    0.82127E-03   -0.91099E-03  2430   0.712E-02    0.438E-02
DAV: 189    -0.792044678483E+03    0.17118E-02   -0.36713E-02  3060   0.142E-01    0.492E-02
DAV: 190    -0.792044848135E+03   -0.16965E-03   -0.38954E-04  2220   0.208E-02    0.383E-02
DAV: 191    -0.792044540791E+03    0.30734E-03   -0.15802E-03  2250   0.304E-02    0.406E-02
DAV: 192    -0.792044060326E+03    0.48047E-03   -0.33994E-03  2370   0.434E-02    0.442E-02
DAV: 193    -0.792043907232E+03    0.15309E-03   -0.83475E-04  2160   0.225E-02    0.465E-02
DAV: 194    -0.792043123031E+03    0.78420E-03   -0.87856E-03  3000   0.695E-02    0.655E-02
DAV: 195    -0.792042701375E+03    0.42166E-03   -0.35554E-03  2430   0.439E-02    0.766E-02
DAV: 196    -0.792042631812E+03    0.69562E-04   -0.35735E-04  1950   0.158E-02    0.795E-02
DAV: 197    -0.792042249528E+03    0.38228E-03   -0.24231E-03  2580   0.367E-02    0.976E-02
DAV: 198    -0.792041739045E+03    0.51048E-03   -0.41374E-03  2520   0.470E-02    0.114E-01
DAV: 199    -0.792041142320E+03    0.59672E-03   -0.55851E-03  2430   0.543E-02    0.131E-01
DAV: 200    -0.792040809063E+03    0.33326E-03   -0.22885E-03  2190   0.355E-02    0.138E-01
DAV: 201    -0.792040632492E+03    0.17657E-03   -0.90058E-04  2010   0.233E-02    0.144E-01
DAV: 202    -0.792039771062E+03    0.86143E-03   -0.10088E-02  2760   0.752E-02    0.152E-01
DAV: 203    -0.792039646342E+03    0.12472E-03   -0.75401E-04  2010   0.217E-02    0.150E-01
DAV: 204    -0.792039565923E+03    0.80419E-04   -0.18715E-04  1800   0.120E-02    0.150E-01
DAV: 205    -0.792039416186E+03    0.14974E-03   -0.40169E-04  1770   0.162E-02    0.153E-01
DAV: 206    -0.792038897473E+03    0.51871E-03   -0.40409E-03  2250   0.476E-02    0.158E-01
DAV: 207    -0.792038609056E+03    0.28842E-03   -0.16478E-03  2010   0.308E-02    0.157E-01
DAV: 208    -0.792038246455E+03    0.36260E-03   -0.23210E-03  2130   0.363E-02    0.162E-01
DAV: 209    -0.792038087765E+03    0.15869E-03   -0.59715E-04  1770   0.198E-02    0.159E-01
DAV: 210    -0.792037869641E+03    0.21812E-03   -0.89538E-04  1980   0.235E-02    0.162E-01
DAV: 211    -0.792037402183E+03    0.46746E-03   -0.37372E-03  2340   0.458E-02    0.168E-01
DAV: 212    -0.792036622802E+03    0.77938E-03   -0.91406E-03  2970   0.705E-02    0.173E-01
DAV: 213    -0.792037088528E+03   -0.46573E-03   -0.26694E-03  2430   0.408E-02    0.160E-01
DAV: 214    -0.792037011997E+03    0.76531E-04   -0.93825E-05  1650   0.937E-03    0.163E-01
DAV: 215    -0.792037561946E+03   -0.54995E-03   -0.53494E-03  2280   0.551E-02    0.159E-01
DAV: 216    -0.792038918159E+03   -0.13562E-02   -0.45430E-02  3060   0.157E-01    0.152E-01
DAV: 217    -0.792040013326E+03   -0.10952E-02   -0.21005E-02  2640   0.107E-01    0.154E-01
DAV: 218    -0.792041418209E+03   -0.14049E-02   -0.45211E-02  3060   0.157E-01    0.147E-01
DAV: 219    -0.792042637140E+03   -0.12189E-02   -0.24745E-02  2880   0.117E-01    0.150E-01
DAV: 220    -0.792042951309E+03   -0.31417E-03   -0.51702E-04  2040   0.201E-02    0.155E-01
DAV: 221    -0.792043219017E+03   -0.26771E-03   -0.78750E-04  1950   0.224E-02    0.155E-01
DAV: 222    -0.792044207067E+03   -0.98805E-03   -0.18037E-02  2880   0.101E-01    0.143E-01
DAV: 223    -0.792045359261E+03   -0.11522E-02   -0.24606E-02  2940   0.115E-01    0.128E-01
DAV: 224    -0.792045922195E+03   -0.56293E-03   -0.34549E-03  2670   0.452E-02    0.138E-01
DAV: 225    -0.792046016699E+03   -0.94504E-04   -0.92876E-05  1890   0.113E-02    0.138E-01
DAV: 226    -0.792046193653E+03   -0.17695E-03   -0.92679E-04  1890   0.253E-02    0.148E-01
DAV: 227    -0.792046341875E+03   -0.14822E-03   -0.34324E-04  2040   0.175E-02    0.154E-01
DAV: 228    -0.792046984269E+03   -0.64239E-03   -0.10128E-02  2670   0.772E-02    0.170E-01
DAV: 229    -0.792047509191E+03   -0.52492E-03   -0.47638E-03  2370   0.531E-02    0.175E-01
DAV: 230    -0.792047249287E+03    0.25990E-03   -0.22877E-03  2340   0.384E-02    0.186E-01
DAV: 231    -0.792048773083E+03   -0.15238E-02   -0.19150E-01  3180   0.329E-01    0.158E-01
DAV: 232    -0.792049647160E+03   -0.87408E-03   -0.32100E-03  2910   0.565E-02    0.159E-01
DAV: 233    -0.792049429452E+03    0.21771E-03   -0.21224E-03  2310   0.369E-02    0.154E-01
DAV: 234    -0.792049488542E+03   -0.59090E-04   -0.98175E-05  1590   0.110E-02    0.148E-01
DAV: 235    -0.792049505244E+03   -0.16701E-04   -0.56394E-06  1590   0.357E-03    0.149E-01
DAV: 236    -0.792049448277E+03    0.56966E-04   -0.36861E-04  1590   0.153E-02    0.148E-01
DAV: 237    -0.792049692405E+03   -0.24413E-03   -0.81420E-04  1770   0.230E-02    0.150E-01
DAV: 238    -0.792050762455E+03   -0.10701E-02   -0.31299E-02  2910   0.134E-01    0.153E-01
DAV: 239    -0.792051531610E+03   -0.76915E-03   -0.28855E-02  2910   0.128E-01    0.149E-01
DAV: 240    -0.792051836134E+03   -0.30452E-03   -0.48077E-04  2010   0.230E-02    0.165E-01
DAV: 241    -0.792050633287E+03    0.12028E-02   -0.33141E-02  2970   0.140E-01    0.167E-01
DAV: 242    -0.792050994089E+03   -0.36080E-03   -0.14266E-03  2430   0.345E-02    0.172E-01
DAV: 243    -0.792050742041E+03    0.25205E-03   -0.29329E-03  2190   0.422E-02    0.181E-01
DAV: 244    -0.792050663373E+03    0.78669E-04   -0.31337E-04  1740   0.145E-02    0.183E-01
DAV: 245    -0.792050536050E+03    0.12732E-03   -0.33698E-04  1800   0.146E-02    0.188E-01
DAV: 246    -0.792049418617E+03    0.11174E-02   -0.29764E-02  3030   0.132E-01    0.186E-01
DAV: 247    -0.792050260960E+03   -0.84234E-03   -0.13224E-02  2850   0.915E-02    0.183E-01
DAV: 248    -0.792050287702E+03   -0.26742E-04   -0.27937E-04  1950   0.146E-02    0.190E-01
DAV: 249    -0.792050243048E+03    0.44654E-04   -0.14112E-04  1740   0.110E-02    0.194E-01
DAV: 250    -0.792050257928E+03   -0.14880E-04   -0.11151E-05  1560   0.516E-03    0.196E-01
DAV: 251    -0.792050147577E+03    0.11035E-03   -0.35573E-03  2280   0.484E-02    0.179E-01
DAV: 252    -0.792050754022E+03   -0.60645E-03   -0.13388E-02  2520   0.894E-02    0.171E-01
DAV: 253    -0.792051237801E+03   -0.48378E-03   -0.56402E-03  2460   0.564E-02    0.161E-01
DAV: 254    -0.792051810096E+03   -0.57229E-03   -0.38156E-03  2340   0.472E-02    0.160E-01
DAV: 255    -0.792052185871E+03   -0.37578E-03   -0.61464E-04  1920   0.219E-02    0.154E-01
DAV: 256    -0.792049955848E+03    0.22300E-02   -0.62021E-02  3000   0.197E-01    0.172E-01
DAV: 257    -0.792051315769E+03   -0.13599E-02   -0.13117E-02  2940   0.895E-02    0.158E-01
DAV: 258    -0.792051731237E+03   -0.41547E-03   -0.29516E-03  2310   0.400E-02    0.159E-01
DAV: 259    -0.792052168607E+03   -0.43737E-03   -0.34885E-03  2310   0.436E-02    0.164E-01
DAV: 260    -0.792052516650E+03   -0.34804E-03   -0.19801E-03  2100   0.334E-02    0.166E-01
DAV: 261    -0.792053581151E+03   -0.10645E-02   -0.51752E-02  3270   0.165E-01    0.769E-02
DAV: 262    -0.792054506219E+03   -0.92507E-03   -0.69986E-03  2910   0.638E-02    0.764E-02
DAV: 263    -0.792054928481E+03   -0.42226E-03   -0.27064E-03  2340   0.401E-02    0.737E-02
DAV: 264    -0.792054965841E+03   -0.37360E-04   -0.69881E-05  1740   0.896E-03    0.780E-02
DAV: 265    -0.792054757610E+03    0.20823E-03   -0.77101E-04  1920   0.213E-02    0.811E-02
DAV: 266    -0.792054157286E+03    0.60032E-03   -0.58926E-03  2490   0.589E-02    0.801E-02
DAV: 267    -0.792053929630E+03    0.22766E-03   -0.13695E-03  2400   0.291E-02    0.779E-02
DAV: 268    -0.792053765591E+03    0.16404E-03   -0.59815E-04  1860   0.196E-02    0.814E-02
DAV: 269    -0.792054169954E+03   -0.40436E-03   -0.27177E-03  2100   0.397E-02    0.767E-02
DAV: 270    -0.792054669335E+03   -0.49938E-03   -0.51091E-03  2310   0.530E-02    0.732E-02
DAV: 271    -0.792055209642E+03   -0.54031E-03   -0.67626E-03  2640   0.615E-02    0.655E-02
DAV: 272    -0.792056209671E+03   -0.10000E-02   -0.23060E-02  2850   0.113E-01    0.754E-02
DAV: 273    -0.792057231463E+03   -0.10218E-02   -0.19281E-02  2610   0.104E-01    0.824E-02
DAV: 274    -0.792058081706E+03   -0.85024E-03   -0.14006E-02  2760   0.883E-02    0.836E-02
DAV: 275    -0.792058505503E+03   -0.42380E-03   -0.25500E-03  2490   0.391E-02    0.875E-02
DAV: 276    -0.792053929399E+03    0.45761E-02   -0.22564E-01  3030   0.357E-01    0.794E-02
DAV: 277    -0.792055382774E+03   -0.14534E-02   -0.38636E-03  2850   0.598E-02    0.546E-02
DAV: 278    -0.792055121741E+03    0.26103E-03   -0.15978E-03  2010   0.309E-02    0.592E-02
DAV: 279    -0.792055078564E+03    0.43177E-04   -0.13085E-04  1710   0.100E-02    0.580E-02
DAV: 280    -0.792054887720E+03    0.19084E-03   -0.87133E-04  1980   0.229E-02    0.596E-02
DAV: 281    -0.792049328187E+03    0.55595E-02   -0.29444E-01  3180   0.406E-01    0.101E-01
DAV: 282    -0.792050265335E+03   -0.93715E-03   -0.56473E-03  2910   0.651E-02    0.839E-02
DAV: 283    -0.792049966080E+03    0.29925E-03   -0.32951E-03  2610   0.446E-02    0.833E-02
DAV: 284    -0.792051131927E+03   -0.11658E-02   -0.25637E-02  2760   0.121E-01    0.703E-02
DAV: 285    -0.792052517598E+03   -0.13857E-02   -0.62149E-02  2940   0.185E-01    0.631E-02
DAV: 286    -0.792053650084E+03   -0.11325E-02   -0.14679E-02  2850   0.922E-02    0.745E-02
DAV: 287    -0.792054470150E+03   -0.82007E-03   -0.13058E-02  2670   0.853E-02    0.763E-02
DAV: 288    -0.792055140347E+03   -0.67020E-03   -0.72922E-03  2700   0.647E-02    0.876E-02
DAV: 289    -0.792055899630E+03   -0.75928E-03   -0.13767E-02  2850   0.875E-02    0.100E-01
DAV: 290    -0.792056500286E+03   -0.60066E-03   -0.76350E-03  2400   0.654E-02    0.115E-01
DAV: 291    -0.792047533684E+03    0.89666E-02   -0.69411E-01  3030   0.622E-01    0.124E-01
DAV: 292    -0.792050358386E+03   -0.28247E-02   -0.35620E-03  2670   0.662E-02    0.801E-02
DAV: 293    -0.792050561280E+03   -0.20289E-03   -0.23446E-04  2460   0.143E-02    0.780E-02
DAV: 294    -0.792050386179E+03    0.17510E-03   -0.55235E-04  1800   0.198E-02    0.794E-02
DAV: 295    -0.792050375892E+03    0.10288E-04   -0.17658E-05  1500   0.601E-03    0.794E-02
DAV: 296    -0.792050361645E+03    0.14247E-04   -0.57883E-05  1650   0.826E-03    0.787E-02
DAV: 297    -0.792050196488E+03    0.16516E-03   -0.45348E-04  1890   0.177E-02    0.781E-02
DAV: 298    -0.792049621263E+03    0.57522E-03   -0.53593E-03  2490   0.557E-02    0.828E-02
DAV: 299    -0.792048776106E+03    0.84516E-03   -0.10024E-02  2880   0.758E-02    0.889E-02
DAV: 300    -0.792049019201E+03   -0.24310E-03   -0.36536E-04  1890   0.186E-02    0.799E-02
DAV: 301    -0.792047780754E+03    0.12384E-02   -0.20515E-02  2790   0.106E-01    0.999E-02
DAV: 302    -0.792047971731E+03   -0.19098E-03   -0.16586E-04  1950   0.144E-02    0.957E-02
DAV: 303    -0.792048241911E+03   -0.27018E-03   -0.11210E-03  1980   0.261E-02    0.904E-02
DAV: 304    -0.792048488429E+03   -0.24652E-03   -0.13621E-03  2100   0.277E-02    0.855E-02
DAV: 305    -0.792049279512E+03   -0.79108E-03   -0.12224E-02  2520   0.828E-02    0.807E-02
DAV: 306    -0.792050636666E+03   -0.13572E-02   -0.88481E-02  3210   0.219E-01    0.760E-02
DAV: 307    -0.792051607336E+03   -0.97067E-03   -0.37970E-03  2790   0.521E-02    0.763E-02
DAV: 308    -0.792051758913E+03   -0.15158E-03   -0.18537E-04  1800   0.131E-02    0.752E-02
DAV: 309    -0.792051831047E+03   -0.72134E-04   -0.96220E-05  1740   0.990E-03    0.755E-02
DAV: 310    -0.792052220555E+03   -0.38951E-03   -0.35467E-03  2340   0.450E-02    0.774E-02
DAV: 311    -0.792053882165E+03   -0.16616E-02   -0.76568E-02  3180   0.208E-01    0.867E-02
DAV: 312    -0.792054703841E+03   -0.82168E-03   -0.43595E-03  2760   0.540E-02    0.845E-02
DAV: 313    -0.792055154294E+03   -0.45045E-03   -0.35740E-03  2340   0.464E-02    0.864E-02
DAV: 314    -0.792054792804E+03    0.36149E-03   -0.24415E-03  2340   0.408E-02    0.862E-02
DAV: 315    -0.792054745490E+03    0.47314E-04   -0.80906E-05  1650   0.876E-03    0.856E-02
DAV: 316    -0.792056208959E+03   -0.14635E-02   -0.57777E-02  3090   0.181E-01    0.908E-02
DAV: 317    -0.792056522240E+03   -0.31328E-03   -0.74166E-04  2550   0.303E-02    0.811E-02
DAV: 318    -0.792056592153E+03   -0.69913E-04   -0.30621E-04  2010   0.181E-02    0.737E-02
DAV: 319    -0.792056827630E+03   -0.23548E-03   -0.12627E-03  2160   0.282E-02    0.681E-02
DAV: 320    -0.792057465816E+03   -0.63819E-03   -0.95939E-03  2520   0.733E-02    0.706E-02
DAV: 321    -0.792058368826E+03   -0.90301E-03   -0.24044E-02  2880   0.115E-01    0.788E-02
DAV: 322    -0.792059475200E+03   -0.11064E-02   -0.31078E-02  3090   0.131E-01    0.801E-02
DAV: 323    -0.792060209779E+03   -0.73458E-03   -0.88425E-03  2400   0.708E-02    0.834E-02
DAV: 324    -0.792060517726E+03   -0.30795E-03   -0.14682E-03  2190   0.304E-02    0.807E-02
DAV: 325    -0.792059793145E+03    0.72458E-03   -0.98350E-03  2400   0.756E-02    0.769E-02
DAV: 326    -0.792059547423E+03    0.24572E-03   -0.22304E-03  2250   0.360E-02    0.792E-02
DAV: 327    -0.792059148547E+03    0.39888E-03   -0.29580E-03  2280   0.425E-02    0.807E-02
DAV: 328    -0.792058483694E+03    0.66485E-03   -0.74049E-03  2370   0.643E-02    0.873E-02
DAV: 329    -0.792058290331E+03    0.19336E-03   -0.11689E-03  2010   0.271E-02    0.873E-02
DAV: 330    -0.792058140512E+03    0.14982E-03   -0.53102E-04  1860   0.193E-02    0.871E-02
DAV: 331    -0.792059192962E+03   -0.10525E-02   -0.19573E-02  2580   0.106E-01    0.860E-02
DAV: 332    -0.792059453681E+03   -0.26072E-03   -0.77225E-04  2010   0.233E-02    0.836E-02
DAV: 333    -0.792059978110E+03   -0.52443E-03   -0.42524E-03  2190   0.494E-02    0.839E-02
DAV: 334    -0.792060811344E+03   -0.83323E-03   -0.12730E-02  2790   0.845E-02    0.829E-02
DAV: 335    -0.792061590614E+03   -0.77927E-03   -0.11235E-02  2310   0.786E-02    0.784E-02
DAV: 336    -0.792055424350E+03    0.61663E-02   -0.36491E-01  2970   0.454E-01    0.114E-01
DAV: 337    -0.792058087534E+03   -0.26632E-02   -0.19626E-02  3060   0.121E-01    0.899E-02
DAV: 338    -0.792059043154E+03   -0.95562E-03   -0.26547E-02  3060   0.124E-01    0.914E-02
DAV: 339    -0.792059825298E+03   -0.78214E-03   -0.10516E-02  2460   0.779E-02    0.966E-02
DAV: 340    -0.792060990076E+03   -0.11648E-02   -0.40895E-02  3000   0.152E-01    0.989E-02
DAV: 341    -0.792062287503E+03   -0.12974E-02   -0.95593E-03  3000   0.839E-02    0.907E-02
DAV: 342    -0.792063476774E+03   -0.11893E-02   -0.41196E-02  3090   0.152E-01    0.711E-02
DAV: 343    -0.792064117088E+03   -0.64031E-03   -0.47724E-03  2580   0.536E-02    0.743E-02
DAV: 344    -0.792064544944E+03   -0.42786E-03   -0.40188E-03  2340   0.478E-02    0.723E-02
DAV: 345    -0.792064857774E+03   -0.31283E-03   -0.16948E-03  2040   0.318E-02    0.716E-02
DAV: 346    -0.792056560592E+03    0.82972E-02   -0.47285E-01  3120   0.526E-01    0.128E-01
DAV: 347    -0.792061734174E+03   -0.51736E-02   -0.81841E-02  3090   0.219E-01    0.766E-02
DAV: 348    -0.792062449527E+03   -0.71535E-03   -0.35832E-03  2760   0.461E-02    0.764E-02
DAV: 349    -0.792063883276E+03   -0.14337E-02   -0.45788E-02  3060   0.160E-01    0.719E-02
DAV: 350    -0.792065053015E+03   -0.11697E-02   -0.10893E-01  3120   0.249E-01    0.861E-02
DAV: 351    -0.792062912260E+03    0.21408E-02   -0.16413E-01  3090   0.325E-01    0.859E-02
DAV: 352    -0.792065735346E+03   -0.28231E-02   -0.21158E-01  3060   0.351E-01    0.680E-02
DAV: 353    -0.792067020045E+03   -0.12847E-02   -0.11038E-02  3000   0.847E-02    0.649E-02
DAV: 354    -0.792067641928E+03   -0.62188E-03   -0.88857E-03  2490   0.715E-02    0.608E-02
DAV: 355    -0.792068041995E+03   -0.40007E-03   -0.11883E-03  2190   0.294E-02    0.547E-02
DAV: 356    -0.792068921727E+03   -0.87973E-03   -0.28149E-02  3060   0.126E-01    0.517E-02
DAV: 357    -0.792069279840E+03   -0.35811E-03   -0.39345E-04  2460   0.301E-02    0.362E-02
DAV: 358    -0.792069542853E+03   -0.26301E-03   -0.18108E-03  2160   0.326E-02    0.354E-02
DAV: 359    -0.792069562839E+03   -0.19986E-04   -0.28074E-05  1680   0.616E-03    0.357E-02
DAV: 360    -0.792069316111E+03    0.24673E-03   -0.13869E-03  1890   0.284E-02    0.358E-02
DAV: 361    -0.792069134061E+03    0.18205E-03   -0.11159E-03  2160   0.307E-02    0.320E-02
DAV: 362    -0.792068773557E+03    0.36050E-03   -0.26970E-03  2220   0.397E-02    0.324E-02
DAV: 363    -0.792068744928E+03    0.28629E-04   -0.25633E-04  1860   0.155E-02    0.295E-02
DAV: 364    -0.792068684119E+03    0.60809E-04   -0.13719E-04  1650   0.106E-02    0.317E-02
DAV: 365    -0.792068691717E+03   -0.75984E-05   -0.27944E-06  1470   0.377E-03
   1 F= -.79206869E+03 E0= -.79206869E+03  d E =-.240335E-05  mag=     4.0011
