       N       E                     dE             d eps       ncg     rms          rms(c)
DAV:   1     0.130298499538E+05    0.13030E+05   -0.30446E+05  2400   0.116E+03
DAV:   2     0.378298934048E+04   -0.92469E+04   -0.79350E+04  3000   0.319E+02
DAV:   3    -0.494883198990E+03   -0.42779E+04   -0.41233E+04  3420   0.210E+02
DAV:   4    -0.978294310821E+03   -0.48341E+03   -0.47775E+03  3660   0.809E+01
DAV:   5    -0.100108576024E+04   -0.22791E+02   -0.22608E+02  4140   0.238E+01    0.139E+02
DAV:   6    -0.672166242750E+03    0.32892E+03   -0.19188E+03  3240   0.538E+01    0.933E+01
DAV:   7    -0.707371147723E+03   -0.35205E+02   -0.18497E+03  3300   0.102E+02    0.873E+01
DAV:   8    -0.725625249075E+03   -0.18254E+02   -0.34738E+02  3720   0.331E+01    0.558E+01
DAV:   9    -0.685887532942E+03    0.39738E+02   -0.13164E+02  4140   0.185E+01    0.476E+01
DAV:  10    -0.674534203129E+03    0.11353E+02   -0.14233E+02  3720   0.156E+01    0.319E+01
DAV:  11    -0.673654142256E+03    0.88006E+00   -0.63114E+01  3660   0.112E+01    0.617E+01
DAV:  12    -0.668554949602E+03    0.50992E+01   -0.29280E+01  3960   0.573E+00    0.234E+01
DAV:  13    -0.678577232374E+03   -0.10022E+02   -0.33727E+01  3720   0.729E+00    0.567E+01
DAV:  14    -0.674404888813E+03    0.41723E+01   -0.10963E+02  3840   0.103E+01    0.195E+01
DAV:  15    -0.690522404446E+03   -0.16118E+02   -0.36903E+01  3720   0.935E+00    0.189E+01
DAV:  16    -0.705118615629E+03   -0.14596E+02   -0.80046E+00  3360   0.453E+00    0.165E+01
DAV:  17    -0.715763260499E+03   -0.10645E+02   -0.51175E+00  3660   0.396E+00    0.153E+01
DAV:  18    -0.730057310834E+03   -0.14294E+02   -0.12925E+01  3420   0.581E+00    0.284E+01
DAV:  19    -0.727543915724E+03    0.25134E+01   -0.29269E+00  4020   0.226E+00    0.256E+01
DAV:  20    -0.732061651972E+03   -0.45177E+01   -0.76634E+00  3600   0.226E+00    0.186E+01
DAV:  21    -0.736905948885E+03   -0.48443E+01   -0.10476E+00  3960   0.157E+00    0.182E+01
DAV:  22    -0.753916827056E+03   -0.17011E+02   -0.12936E+01  3660   0.446E+00    0.297E+01
DAV:  23    -0.757355449183E+03   -0.34386E+01   -0.70228E+00  4020   0.302E+00    0.197E+01
DAV:  24    -0.765877600169E+03   -0.85222E+01   -0.57242E+00  3660   0.336E+00    0.185E+01
DAV:  25    -0.770597527166E+03   -0.47199E+01   -0.40175E+00  3960   0.334E+00    0.168E+01
DAV:  26    -0.776316604929E+03   -0.57191E+01   -0.43636E+00  3720   0.333E+00    0.156E+01
DAV:  27    -0.780823062154E+03   -0.45065E+01   -0.44760E+00  3960   0.316E+00    0.139E+01
DAV:  28    -0.784357145166E+03   -0.35341E+01   -0.10561E+01  3720   0.256E+00    0.146E+01
DAV:  29    -0.784787033873E+03   -0.42989E+00   -0.28477E-01  4140   0.659E-01    0.147E+01
DAV:  30    -0.784810197776E+03   -0.23164E-01   -0.25850E-02  3840   0.216E-01    0.146E+01
DAV:  31    -0.784854154371E+03   -0.43957E-01   -0.86785E-03  4380   0.172E-01    0.147E+01
DAV:  32    -0.785155130731E+03   -0.30098E+00   -0.27243E-02  3900   0.433E-01    0.149E+01
DAV:  33    -0.785362713914E+03   -0.20758E+00   -0.33726E-02  4260   0.300E-01    0.151E+01
DAV:  34    -0.785363808449E+03   -0.10945E-02   -0.95009E-03  3360   0.978E-02    0.152E+01
DAV:  35    -0.785279006688E+03    0.84802E-01   -0.17221E-03  4200   0.109E-01    0.151E+01
DAV:  36    -0.785408732812E+03   -0.12973E+00   -0.12759E-02  3900   0.203E-01    0.152E+01
DAV:  37    -0.785442471978E+03   -0.33739E-01   -0.83028E-03  4140   0.811E-02    0.152E+01
DAV:  38    -0.785543975509E+03   -0.10150E+00   -0.27973E-02  4080   0.160E-01    0.154E+01
DAV:  39    -0.785543810916E+03    0.16459E-03   -0.43647E-03  3660   0.494E-02    0.153E+01
DAV:  40    -0.785864071875E+03   -0.32026E+00   -0.58973E-02  3900   0.408E-01    0.186E+01
DAV:  41    -0.785857424769E+03    0.66471E-02   -0.12213E-02  3180   0.171E-01    0.182E+01
DAV:  42    -0.785931028737E+03   -0.73604E-01   -0.68118E-02  4260   0.149E-01    0.176E+01
DAV:  43    -0.786326091640E+03   -0.39506E+00   -0.84534E-02  4020   0.295E-01    0.184E+01
DAV:  44    -0.786468453427E+03   -0.14236E+00   -0.47693E-02  4020   0.156E-01    0.179E+01
DAV:  45    -0.786880856404E+03   -0.41240E+00   -0.44297E-01  4200   0.355E-01    0.220E+01
DAV:  46    -0.786787049744E+03    0.93807E-01   -0.47386E-02  3480   0.238E-01    0.229E+01
DAV:  47    -0.786854825907E+03   -0.67776E-01   -0.80386E-02  3900   0.177E-01    0.229E+01
DAV:  48    -0.786847608200E+03    0.72177E-02   -0.15404E-03  3180   0.591E-02    0.229E+01
DAV:  49    -0.786876461638E+03   -0.28853E-01   -0.16471E-02  4260   0.637E-02    0.230E+01
DAV:  50    -0.786926877799E+03   -0.50416E-01   -0.22214E-02  4080   0.785E-02    0.232E+01
DAV:  51    -0.786068960728E+03    0.85792E+00   -0.13277E+00  3720   0.108E+00    0.178E+01
DAV:  52    -0.787043326746E+03   -0.97437E+00   -0.15171E+00  3840   0.814E-01    0.238E+01
DAV:  53    -0.787219084082E+03   -0.17576E+00   -0.57012E-01  3780   0.421E-01    0.236E+01
DAV:  54    -0.787224585656E+03   -0.55016E-02   -0.58327E-03  3360   0.115E-01    0.236E+01
DAV:  55    -0.787235260912E+03   -0.10675E-01   -0.24719E-02  4560   0.118E-01    0.233E+01
DAV:  56    -0.790096307623E+03   -0.28610E+01   -0.47304E+00  3780   0.251E+00    0.390E+01
DAV:  57    -0.790091843491E+03    0.44641E-02   -0.49925E-01  3780   0.645E-01    0.402E+01
DAV:  58    -0.790030689168E+03    0.61154E-01   -0.11708E-01  3840   0.210E-01    0.394E+01
DAV:  59    -0.790037205578E+03   -0.65164E-02   -0.88827E-03  4020   0.648E-02    0.394E+01
DAV:  60    -0.790050047244E+03   -0.12842E-01   -0.11797E-02  4020   0.452E-02    0.391E+01
DAV:  61    -0.785046467058E+03    0.50036E+01   -0.33090E+01  3840   0.828E+00    0.195E+01
DAV:  62    -0.785248844684E+03   -0.20238E+00   -0.41696E+00  3960   0.330E+00    0.198E+01
DAV:  63    -0.785645617548E+03   -0.39677E+00   -0.68014E+00  3960   0.195E+00    0.299E+01
DAV:  64    -0.785883035653E+03   -0.23742E+00   -0.24118E-01  3660   0.832E-01    0.303E+01
DAV:  65    -0.786770300673E+03   -0.88727E+00   -0.46348E-01  3900   0.915E-01    0.303E+01
DAV:  66    -0.783512541296E+03    0.32578E+01   -0.49314E+00  3600   0.623E+00    0.293E+01
DAV:  67    -0.783787841766E+03   -0.27530E+00   -0.30279E+00  3960   0.272E+00    0.283E+01
DAV:  68    -0.783638761886E+03    0.14908E+00   -0.46495E-01  3600   0.122E+00    0.291E+01
DAV:  69    -0.783980150059E+03   -0.34139E+00   -0.49103E-01  4080   0.869E-01    0.291E+01
DAV:  70    -0.784642819389E+03   -0.66267E+00   -0.88076E-01  3540   0.116E+00    0.291E+01
DAV:  71    -0.774418419654E+03    0.10224E+02   -0.87191E+01  3840   0.137E+01    0.715E+01
DAV:  72    -0.774849510495E+03   -0.43109E+00   -0.19530E+01  3600   0.922E+00    0.444E+01
DAV:  73    -0.774588333597E+03    0.26118E+00   -0.82840E+00  3720   0.247E+00    0.491E+01
DAV:  74    -0.774207968505E+03    0.38037E+00   -0.11398E+00  3900   0.107E+00    0.485E+01
DAV:  75    -0.776876765141E+03   -0.26688E+01   -0.92073E+00  3720   0.249E+00    0.415E+01
DAV:  76    -0.780805441689E+03   -0.39287E+01   -0.44674E+00  3720   0.254E+00    0.304E+01
DAV:  77    -0.781905104641E+03   -0.10997E+01   -0.34039E+00  3900   0.245E+00    0.318E+01
DAV:  78    -0.784103228476E+03   -0.21981E+01   -0.34583E+00  3840   0.256E+00    0.294E+01
DAV:  79    -0.787230296207E+03   -0.31271E+01   -0.10653E+01  3660   0.413E+00    0.307E+01
DAV:  80    -0.788418017753E+03   -0.11877E+01   -0.27985E+00  3900   0.235E+00    0.301E+01
DAV:  81    -0.786710048001E+03    0.17080E+01   -0.20726E+01  3660   0.100E+01    0.265E+01
DAV:  82    -0.785888509800E+03    0.82154E+00   -0.73242E+00  3840   0.413E+00    0.225E+01
DAV:  83    -0.785310610311E+03    0.57790E+00   -0.66279E+00  3780   0.293E+00    0.207E+01
DAV:  84    -0.784477085151E+03    0.83353E+00   -0.61338E+00  3600   0.305E+00    0.197E+01
DAV:  85    -0.783338614120E+03    0.11385E+01   -0.85570E+00  3360   0.360E+00    0.186E+01
DAV:  86    -0.784201512452E+03   -0.86290E+00   -0.55480E+00  3540   0.319E+00    0.182E+01
DAV:  87    -0.783800193812E+03    0.40132E+00   -0.31610E+00  3540   0.350E+00    0.214E+01
DAV:  88    -0.783739539993E+03    0.60654E-01   -0.39210E-01  3420   0.854E-01    0.220E+01
DAV:  89    -0.783764771663E+03   -0.25232E-01   -0.48771E-02  4200   0.305E-01    0.219E+01
DAV:  90    -0.783804370565E+03   -0.39599E-01   -0.99965E-03  3960   0.141E-01    0.219E+01
DAV:  91    -0.784778439435E+03   -0.97407E+00   -0.29647E+00  3540   0.377E+00    0.199E+01
DAV:  92    -0.783977308864E+03    0.80113E+00   -0.22236E+00  3720   0.193E+00    0.183E+01
DAV:  93    -0.783216254605E+03    0.76105E+00   -0.15936E+00  3960   0.201E+00    0.175E+01
DAV:  94    -0.781095612419E+03    0.21206E+01   -0.65248E+00  3600   0.222E+00    0.216E+01
DAV:  95    -0.780687786756E+03    0.40783E+00   -0.26258E-01  3960   0.764E-01    0.212E+01
DAV:  96    -0.777943830421E+03    0.27440E+01   -0.10085E+01  3480   0.414E+00    0.134E+01
DAV:  97    -0.778321298279E+03   -0.37747E+00   -0.20496E+00  3840   0.282E+00    0.174E+01
DAV:  98    -0.779213017665E+03   -0.89172E+00   -0.76449E-01  3660   0.160E+00    0.171E+01
DAV:  99    -0.779097259475E+03    0.11576E+00   -0.12367E+00  3480   0.168E+00    0.173E+01
DAV: 100    -0.779686158580E+03   -0.58890E+00   -0.20736E+00  3660   0.172E+00    0.169E+01
DAV: 101    -0.779273380720E+03    0.41278E+00   -0.25671E+00  3720   0.223E+00    0.169E+01
DAV: 102    -0.779134511885E+03    0.13887E+00   -0.54929E-01  3540   0.106E+00    0.169E+01
DAV: 103    -0.779179870932E+03   -0.45359E-01   -0.42897E-01  3900   0.812E-01    0.170E+01
DAV: 104    -0.779031328768E+03    0.14854E+00   -0.50948E-01  3660   0.103E+00    0.175E+01
DAV: 105    -0.778992961910E+03    0.38367E-01   -0.62753E-02  3960   0.353E-01    0.176E+01
DAV: 106    -0.778240834250E+03    0.75213E+00   -0.60137E+00  3480   0.351E+00    0.190E+01
DAV: 107    -0.778226182765E+03    0.14651E-01   -0.28680E+00  3600   0.247E+00    0.180E+01
DAV: 108    -0.778549278357E+03   -0.32310E+00   -0.13130E+00  3720   0.124E+00    0.173E+01
DAV: 109    -0.778569939388E+03   -0.20661E-01   -0.76458E-02  3780   0.344E-01    0.174E+01
DAV: 110    -0.778600581424E+03   -0.30642E-01   -0.69357E-02  3900   0.288E-01    0.177E+01
DAV: 111    -0.779079138528E+03   -0.47856E+00   -0.15606E+00  3420   0.227E+00    0.173E+01
DAV: 112    -0.779380799598E+03   -0.30166E+00   -0.18714E+00  3660   0.173E+00    0.172E+01
DAV: 113    -0.779129079376E+03    0.25172E+00   -0.67945E-01  3720   0.103E+00    0.168E+01
DAV: 114    -0.778585273992E+03    0.54381E+00   -0.15486E+00  3600   0.148E+00    0.156E+01
DAV: 115    -0.778104723727E+03    0.48055E+00   -0.30418E+00  3660   0.234E+00    0.137E+01
DAV: 116    -0.782804515785E+03   -0.46998E+01   -0.19542E+01  3840   0.855E+00    0.122E+01
DAV: 117    -0.787624921409E+03   -0.48204E+01   -0.27727E+00  3840   0.251E+00    0.103E+01
DAV: 118    -0.788897581752E+03   -0.12727E+01   -0.23621E+00  3780   0.187E+00    0.968E+00
DAV: 119    -0.789351552421E+03   -0.45397E+00   -0.99514E-01  3840   0.123E+00    0.913E+00
DAV: 120    -0.789738031354E+03   -0.38648E+00   -0.15848E+00  3720   0.158E+00    0.836E+00
DAV: 121    -0.789559781384E+03    0.17825E+00   -0.27358E+00  3900   0.226E+00    0.758E+00
DAV: 122    -0.789473494897E+03    0.86286E-01   -0.59252E-01  4200   0.101E+00    0.723E+00
DAV: 123    -0.789422889388E+03    0.50606E-01   -0.42302E-01  3840   0.860E-01    0.704E+00
DAV: 124    -0.789178989829E+03    0.24390E+00   -0.98995E-01  3540   0.129E+00    0.705E+00
DAV: 125    -0.789063018935E+03    0.11597E+00   -0.25837E-01  3960   0.644E-01    0.719E+00
DAV: 126    -0.788534025745E+03    0.52899E+00   -0.20110E+00  3420   0.187E+00    0.631E+00
DAV: 127    -0.789095108482E+03   -0.56108E+00   -0.66453E-01  4080   0.954E-01    0.739E+00
DAV: 128    -0.789252391113E+03   -0.15728E+00   -0.27463E-01  3780   0.846E-01    0.737E+00
DAV: 129    -0.789274407445E+03   -0.22016E-01   -0.21440E-01  3720   0.544E-01    0.706E+00
DAV: 130    -0.789418289218E+03   -0.14388E+00   -0.55256E-01  3540   0.729E-01    0.644E+00
DAV: 131    -0.789989654992E+03   -0.57137E+00   -0.25826E+00  3480   0.191E+00    0.509E+00
DAV: 132    -0.790255170373E+03   -0.26552E+00   -0.48841E-01  4080   0.803E-01    0.497E+00
DAV: 133    -0.790440149421E+03   -0.18498E+00   -0.27580E-01  3720   0.491E-01    0.480E+00
DAV: 134    -0.790515689374E+03   -0.75540E-01   -0.21028E-01  3780   0.493E-01    0.457E+00
DAV: 135    -0.790535655905E+03   -0.19967E-01   -0.53930E-01  3900   0.933E-01    0.409E+00
DAV: 136    -0.790371598949E+03    0.16406E+00   -0.95987E-01  3960   0.184E+00    0.392E+00
DAV: 137    -0.790268275988E+03    0.10332E+00   -0.18576E-01  3660   0.665E-01    0.397E+00
DAV: 138    -0.790223562531E+03    0.44713E-01   -0.49560E-02  4260   0.255E-01    0.399E+00
DAV: 139    -0.790199811431E+03    0.23751E-01   -0.82767E-03  4140   0.110E-01    0.400E+00
DAV: 140    -0.790223661075E+03   -0.23850E-01   -0.43203E-03  3720   0.908E-02    0.397E+00
DAV: 141    -0.790342806461E+03   -0.11915E+00   -0.14396E-01  3540   0.589E-01    0.410E+00
DAV: 142    -0.790779245546E+03   -0.43644E+00   -0.23344E+00  3540   0.187E+00    0.407E+00
DAV: 143    -0.791022496582E+03   -0.24325E+00   -0.53577E-01  3780   0.919E-01    0.423E+00
DAV: 144    -0.791149001594E+03   -0.12651E+00   -0.11487E-01  3840   0.404E-01    0.429E+00
DAV: 145    -0.791284615957E+03   -0.13561E+00   -0.12177E-01  3720   0.451E-01    0.445E+00
DAV: 146    -0.791358473079E+03   -0.73857E-01   -0.95082E-02  3720   0.466E-01    0.444E+00
DAV: 147    -0.791607870914E+03   -0.24940E+00   -0.95397E-01  3480   0.118E+00    0.474E+00
DAV: 148    -0.791826172464E+03   -0.21830E+00   -0.86715E-01  3840   0.121E+00    0.509E+00
DAV: 149    -0.791889956951E+03   -0.63784E-01   -0.11051E-01  4140   0.396E-01    0.506E+00
DAV: 150    -0.791907575846E+03   -0.17619E-01   -0.65887E-01  3600   0.105E+00    0.538E+00
DAV: 151    -0.791612495920E+03    0.29508E+00   -0.86686E-01  3720   0.151E+00    0.637E+00
DAV: 152    -0.791697362941E+03   -0.84867E-01   -0.97622E-02  3780   0.470E-01    0.606E+00
DAV: 153    -0.791765071353E+03   -0.67708E-01   -0.15379E-01  3540   0.786E-01    0.567E+00
DAV: 154    -0.791812518316E+03   -0.47447E-01   -0.12843E-01  3840   0.829E-01    0.521E+00
DAV: 155    -0.791847008686E+03   -0.34490E-01   -0.18639E-01  3780   0.739E-01    0.480E+00
DAV: 156    -0.791878656846E+03   -0.31648E-01   -0.59904E-01  3600   0.115E+00    0.484E+00
DAV: 157    -0.791898793023E+03   -0.20136E-01   -0.41956E-01  3660   0.822E-01    0.455E+00
DAV: 158    -0.791918939057E+03   -0.20146E-01   -0.44004E-01  3780   0.750E-01    0.439E+00
DAV: 159    -0.791904546832E+03    0.14392E-01   -0.20773E-01  3660   0.691E-01    0.399E+00
DAV: 160    -0.791944296810E+03   -0.39750E-01   -0.45273E-01  3480   0.101E+00    0.349E+00
DAV: 161    -0.791920641757E+03    0.23655E-01   -0.38099E-01  3660   0.854E-01    0.304E+00
DAV: 162    -0.791947443045E+03   -0.26801E-01   -0.12499E-01  4320   0.390E-01    0.289E+00
DAV: 163    -0.791986293288E+03   -0.38850E-01   -0.16708E-01  3660   0.431E-01    0.272E+00
DAV: 164    -0.792010991148E+03   -0.24698E-01   -0.16638E-01  3420   0.523E-01    0.240E+00
DAV: 165    -0.792024291408E+03   -0.13300E-01   -0.23645E-01  3900   0.550E-01    0.211E+00
DAV: 166    -0.792011761927E+03    0.12529E-01   -0.52978E-01  3480   0.106E+00    0.153E+00
DAV: 167    -0.792021522016E+03   -0.97601E-02   -0.60753E-02  4200   0.290E-01    0.145E+00
DAV: 168    -0.792022576005E+03   -0.10540E-02   -0.76712E-02  3720   0.353E-01    0.131E+00
DAV: 169    -0.792019689394E+03    0.28866E-02   -0.24818E-01  3720   0.551E-01    0.112E+00
DAV: 170    -0.792029318210E+03   -0.96288E-02   -0.16137E-01  3720   0.538E-01    0.915E-01
DAV: 171    -0.791999343491E+03    0.29975E-01   -0.51112E-01  3720   0.933E-01    0.647E-01
DAV: 172    -0.792017080988E+03   -0.17737E-01   -0.45498E-02  3960   0.297E-01    0.482E-01
DAV: 173    -0.792028003624E+03   -0.10923E-01   -0.37185E-02  4080   0.187E-01    0.440E-01
DAV: 174    -0.792033798395E+03   -0.57948E-02   -0.10136E-02  3900   0.910E-02    0.384E-01
DAV: 175    -0.792040706987E+03   -0.69086E-02   -0.20632E-02  3480   0.125E-01    0.313E-01
DAV: 176    -0.792045803148E+03   -0.50962E-02   -0.12172E-02  3660   0.961E-02    0.254E-01
DAV: 177    -0.792051233090E+03   -0.54299E-02   -0.17138E-02  3480   0.103E-01    0.181E-01
DAV: 178    -0.792055376824E+03   -0.41437E-02   -0.14055E-02  3720   0.969E-02    0.121E-01
DAV: 179    -0.792057829705E+03   -0.24529E-02   -0.98168E-03  3540   0.794E-02    0.812E-02
DAV: 180    -0.792059868109E+03   -0.20384E-02   -0.56214E-03  3660   0.696E-02    0.615E-02
DAV: 181    -0.792060914135E+03   -0.10460E-02   -0.26274E-03  3540   0.411E-02    0.486E-02
DAV: 182    -0.792061522253E+03   -0.60812E-03   -0.15453E-03  3300   0.303E-02    0.460E-02
DAV: 183    -0.792062106157E+03   -0.58390E-03   -0.14757E-03  3360   0.293E-02    0.433E-02
DAV: 184    -0.792062622342E+03   -0.51619E-03   -0.16541E-03  2940   0.303E-02    0.397E-02
DAV: 185    -0.792063000134E+03   -0.37779E-03   -0.12358E-03  3060   0.260E-02    0.354E-02
DAV: 186    -0.792063409498E+03   -0.40936E-03   -0.20262E-03  3180   0.338E-02    0.305E-02
DAV: 187    -0.792063560521E+03   -0.15102E-03   -0.35800E-04  2460   0.147E-02    0.292E-02
DAV: 188    -0.792063621587E+03   -0.61065E-04   -0.86663E-05  1920   0.820E-03    0.290E-02
DAV: 189    -0.792063645953E+03   -0.24367E-04   -0.18659E-05  1860   0.470E-03    0.289E-02
DAV: 190    -0.792063624106E+03    0.21847E-04   -0.88014E-06  1800   0.334E-03    0.292E-02
DAV: 191    -0.792064086564E+03   -0.46246E-03   -0.40763E-03  2640   0.455E-02    0.310E-02
DAV: 192    -0.792064478270E+03   -0.39171E-03   -0.37650E-03  3120   0.431E-02    0.317E-02
DAV: 193    -0.792064772103E+03   -0.29383E-03   -0.19220E-03  2460   0.310E-02    0.326E-02
DAV: 194    -0.792065187172E+03   -0.41507E-03   -0.45206E-03  2880   0.469E-02    0.338E-02
DAV: 195    -0.792065446849E+03   -0.25968E-03   -0.15584E-03  2520   0.280E-02    0.356E-02
DAV: 196    -0.792065377080E+03    0.69769E-04   -0.15793E-04  2280   0.115E-02    0.379E-02
DAV: 197    -0.792065379524E+03   -0.24433E-05   -0.56860E-06  1860   0.348E-03
   1 F= -.79206538E+03 E0= -.79206538E+03  d E =-.181803E-05  mag=     3.9906
