       N       E                     dE             d eps       ncg     rms          rms(c)
DAV:   1     0.134053914561E+05    0.13405E+05   -0.30274E+05  2280   0.125E+03
DAV:   2     0.448313283581E+04   -0.89223E+04   -0.78007E+04  2710   0.340E+02
DAV:   3    -0.739972363370E+02   -0.45571E+04   -0.44638E+04  3030   0.234E+02
DAV:   4    -0.932502984834E+03   -0.85851E+03   -0.82667E+03  3460   0.105E+02
DAV:   5    -0.997315872028E+03   -0.64813E+02   -0.64021E+02  3760   0.382E+01    0.139E+02
DAV:   6    -0.666829444693E+03    0.33049E+03   -0.19247E+03  2940   0.577E+01    0.752E+01
DAV:   7    -0.689801951279E+03   -0.22973E+02   -0.12020E+03  3410   0.914E+01    0.834E+01
DAV:   8    -0.703242252840E+03   -0.13440E+02   -0.25920E+02  3840   0.281E+01    0.550E+01
DAV:   9    -0.667791683522E+03    0.35451E+02   -0.15770E+02  3990   0.208E+01    0.679E+01
DAV:  10    -0.664399804953E+03    0.33919E+01   -0.18636E+02  3880   0.152E+01    0.290E+01
DAV:  11    -0.662863915390E+03    0.15359E+01   -0.47710E+01  3840   0.103E+01    0.426E+01
DAV:  12    -0.663486488785E+03   -0.62257E+00   -0.64584E+01  4010   0.989E+00    0.310E+01
DAV:  13    -0.670034796184E+03   -0.65483E+01   -0.47557E+01  3980   0.962E+00    0.225E+01
DAV:  14    -0.681985903380E+03   -0.11951E+02   -0.13786E+01  3850   0.656E+00    0.167E+01
DAV:  15    -0.704927924213E+03   -0.22942E+02   -0.17368E+01  3530   0.642E+00    0.231E+01
DAV:  16    -0.717120310941E+03   -0.12192E+02   -0.10965E+01  3830   0.507E+00    0.199E+01
DAV:  17    -0.729528739374E+03   -0.12408E+02   -0.64030E+00  3580   0.427E+00    0.180E+01
DAV:  18    -0.749192769950E+03   -0.19664E+02   -0.19074E+01  3400   0.559E+00    0.123E+01
DAV:  19    -0.756190388535E+03   -0.69976E+01   -0.63213E+00  3710   0.293E+00    0.124E+01
DAV:  20    -0.759887037463E+03   -0.36966E+01   -0.15234E+00  3710   0.189E+00    0.115E+01
DAV:  21    -0.768034185340E+03   -0.81471E+01   -0.38924E+00  3470   0.297E+00    0.106E+01
DAV:  22    -0.777415125479E+03   -0.93809E+01   -0.72989E+00  3410   0.380E+00    0.855E+00
DAV:  23    -0.782971167556E+03   -0.55560E+01   -0.43501E+00  3540   0.277E+00    0.671E+00
DAV:  24    -0.784867871148E+03   -0.18967E+01   -0.25088E+00  3940   0.134E+00    0.771E+00
DAV:  25    -0.785128705843E+03   -0.26083E+00   -0.10221E-01  4000   0.494E-01    0.753E+00
DAV:  26    -0.785966577898E+03   -0.83787E+00   -0.26587E-01  3850   0.768E-01    0.695E+00
DAV:  27    -0.787576372763E+03   -0.16098E+01   -0.16156E+00  3710   0.159E+00    0.563E+00
DAV:  28    -0.788650406408E+03   -0.10740E+01   -0.77796E-01  3690   0.137E+00    0.473E+00
DAV:  29    -0.789863622568E+03   -0.12132E+01   -0.68980E-01  3550   0.166E+00    0.365E+00
DAV:  30    -0.790753515683E+03   -0.88989E+00   -0.44982E-01  3820   0.112E+00    0.298E+00
DAV:  31    -0.791472527992E+03   -0.71901E+00   -0.35008E-01  3910   0.982E-01    0.238E+00
DAV:  32    -0.791795817303E+03   -0.32329E+00   -0.44930E-01  3840   0.114E+00    0.171E+00
DAV:  33    -0.791891897570E+03   -0.96080E-01   -0.21996E-01  4010   0.825E-01    0.126E+00
DAV:  34    -0.791911324402E+03   -0.19427E-01   -0.82195E-02  4120   0.517E-01    0.986E-01
DAV:  35    -0.791935508673E+03   -0.24184E-01   -0.76876E-02  4020   0.508E-01    0.785E-01
DAV:  36    -0.791953139916E+03   -0.17631E-01   -0.51000E-02  4030   0.368E-01    0.693E-01
DAV:  37    -0.791959926145E+03   -0.67862E-02   -0.22898E-02  4130   0.194E-01    0.629E-01
DAV:  38    -0.791965367642E+03   -0.54415E-02   -0.13181E-02  4050   0.148E-01    0.586E-01
DAV:  39    -0.791973125854E+03   -0.77582E-02   -0.23290E-02  3930   0.162E-01    0.552E-01
DAV:  40    -0.791977090787E+03   -0.39649E-02   -0.19163E-02  3700   0.152E-01    0.463E-01
DAV:  41    -0.791980891299E+03   -0.38005E-02   -0.18040E-02  3640   0.155E-01    0.362E-01
DAV:  42    -0.791982715777E+03   -0.18245E-02   -0.57073E-03  3710   0.973E-02    0.296E-01
DAV:  43    -0.791984302661E+03   -0.15869E-02   -0.42024E-03  3770   0.747E-02    0.249E-01
DAV:  44    -0.791985251244E+03   -0.94858E-03   -0.20059E-03  3610   0.489E-02    0.225E-01
DAV:  45    -0.791987347338E+03   -0.20961E-02   -0.80518E-03  3520   0.943E-02    0.175E-01
DAV:  46    -0.791990010136E+03   -0.26628E-02   -0.14293E-02  3610   0.122E-01    0.122E-01
DAV:  47    -0.791991732594E+03   -0.17225E-02   -0.72662E-03  3630   0.838E-02    0.909E-02
DAV:  48    -0.791993099205E+03   -0.13666E-02   -0.56147E-03  3510   0.708E-02    0.729E-02
DAV:  49    -0.791994463421E+03   -0.13642E-02   -0.81178E-03  3490   0.790E-02    0.626E-02
DAV:  50    -0.791995579474E+03   -0.11161E-02   -0.76246E-03  3290   0.746E-02    0.603E-02
DAV:  51    -0.791995179260E+03    0.40021E-03   -0.13135E-03  3300   0.532E-02    0.723E-02
DAV:  52    -0.791995093267E+03    0.85993E-04   -0.21265E-04  2570   0.214E-02    0.735E-02
DAV:  53    -0.791995017251E+03    0.76016E-04   -0.59454E-05  2300   0.106E-02    0.731E-02
DAV:  54    -0.791994960641E+03    0.56610E-04   -0.26400E-05  2140   0.760E-03    0.729E-02
DAV:  55    -0.791994703242E+03    0.25740E-03   -0.39585E-04  2280   0.193E-02    0.724E-02
DAV:  56    -0.791994438799E+03    0.26444E-03   -0.37876E-04  2400   0.237E-02    0.722E-02
DAV:  57    -0.791994456802E+03   -0.18003E-04   -0.89078E-06  1780   0.668E-03    0.712E-02
DAV:  58    -0.791994557963E+03   -0.10116E-03   -0.29016E-05  1970   0.793E-03    0.729E-02
DAV:  59    -0.791994266861E+03    0.29110E-03   -0.37497E-04  2140   0.190E-02    0.816E-02
DAV:  60    -0.791994298124E+03   -0.31262E-04   -0.65275E-06  1730   0.714E-03    0.786E-02
DAV:  61    -0.791994594683E+03   -0.29656E-03   -0.49933E-04  2280   0.241E-02    0.773E-02
DAV:  62    -0.791994545733E+03    0.48950E-04   -0.23226E-05  1920   0.844E-03    0.791E-02
DAV:  63    -0.791994621747E+03   -0.76014E-04   -0.54006E-05  1920   0.986E-03    0.771E-02
DAV:  64    -0.791994923729E+03   -0.30198E-03   -0.80748E-04  2710   0.264E-02    0.842E-02
DAV:  65    -0.791995077652E+03   -0.15392E-03   -0.27507E-04  2140   0.168E-02    0.920E-02
DAV:  66    -0.791995471666E+03   -0.39401E-03   -0.91126E-04  2590   0.292E-02    0.932E-02
DAV:  67    -0.791995467841E+03    0.38255E-05   -0.32462E-05  1770   0.103E-02
   1 F= -.79199547E+03 E0= -.79199547E+03  d E =-.212795E-05  mag=     3.9827
