       N       E                     dE             d eps       ncg     rms          rms(c)
DAV:   1     0.134114339919E+05    0.13411E+05   -0.30227E+05  2280   0.125E+03
DAV:   2     0.449030083463E+04   -0.89211E+04   -0.77603E+04  2700   0.340E+02
DAV:   3    -0.236081478599E+01   -0.44927E+04   -0.43951E+04  2990   0.234E+02
DAV:   4    -0.917685400220E+03   -0.91532E+03   -0.87269E+03  3405   0.104E+02
DAV:   5    -0.996692829223E+03   -0.79007E+02   -0.77954E+02  3760   0.401E+01    0.139E+02
DAV:   6    -0.665206170609E+03    0.33149E+03   -0.18936E+03  2915   0.575E+01    0.727E+01
DAV:   7    -0.685669475111E+03   -0.20463E+02   -0.11172E+03  3450   0.892E+01    0.857E+01
DAV:   8    -0.701846059417E+03   -0.16177E+02   -0.24659E+02  3935   0.273E+01    0.558E+01
DAV:   9    -0.667980476768E+03    0.33866E+02   -0.13449E+02  3965   0.201E+01    0.720E+01
DAV:  10    -0.663628551155E+03    0.43519E+01   -0.17737E+02  3895   0.164E+01    0.312E+01
DAV:  11    -0.663695535659E+03   -0.66985E-01   -0.55476E+01  3745   0.113E+01    0.508E+01
DAV:  12    -0.661528950360E+03    0.21666E+01   -0.44120E+01  4150   0.102E+01    0.307E+01
DAV:  13    -0.670171613575E+03   -0.86427E+01   -0.46491E+01  3875   0.102E+01    0.235E+01
DAV:  14    -0.679573353031E+03   -0.94017E+01   -0.14641E+01  3935   0.692E+00    0.177E+01
DAV:  15    -0.704167456140E+03   -0.24594E+02   -0.19697E+01  3395   0.658E+00    0.227E+01
DAV:  16    -0.718328601818E+03   -0.14161E+02   -0.11846E+01  3745   0.559E+00    0.196E+01
DAV:  17    -0.726781272674E+03   -0.84527E+01   -0.56210E+00  3765   0.353E+00    0.178E+01
DAV:  18    -0.743128665346E+03   -0.16347E+02   -0.10515E+01  3445   0.470E+00    0.120E+01
DAV:  19    -0.753607407174E+03   -0.10479E+02   -0.62348E+00  3525   0.337E+00    0.103E+01
DAV:  20    -0.763332634472E+03   -0.97252E+01   -0.47524E+00  3340   0.316E+00    0.906E+00
DAV:  21    -0.774839717965E+03   -0.11507E+02   -0.72809E+00  3365   0.333E+00    0.789E+00
DAV:  22    -0.782148349390E+03   -0.73086E+01   -0.50666E+00  3265   0.276E+00    0.651E+00
DAV:  23    -0.784230747383E+03   -0.20824E+01   -0.33018E+00  4090   0.146E+00    0.939E+00
DAV:  24    -0.784077716701E+03    0.15303E+00   -0.13746E-01  3830   0.691E-01    0.950E+00
DAV:  25    -0.784623376998E+03   -0.54566E+00   -0.16066E-01  3945   0.858E-01    0.909E+00
DAV:  26    -0.786087705625E+03   -0.14643E+01   -0.13135E+00  3805   0.171E+00    0.789E+00
DAV:  27    -0.787091862005E+03   -0.10042E+01   -0.12981E+00  3710   0.149E+00    0.690E+00
DAV:  28    -0.787962783234E+03   -0.87092E+00   -0.92663E-01  3645   0.149E+00    0.604E+00
DAV:  29    -0.789237276082E+03   -0.12745E+01   -0.10134E+00  3660   0.155E+00    0.502E+00
DAV:  30    -0.790600462282E+03   -0.13632E+01   -0.63674E-01  3645   0.189E+00    0.409E+00
DAV:  31    -0.791259914684E+03   -0.65945E+00   -0.54726E-01  3620   0.123E+00    0.323E+00
DAV:  32    -0.791672808400E+03   -0.41289E+00   -0.25169E-01  4010   0.109E+00    0.256E+00
DAV:  33    -0.791753117014E+03   -0.80309E-01   -0.16849E-01  3730   0.783E-01    0.243E+00
DAV:  34    -0.791755661519E+03   -0.25445E-02   -0.14137E-01  4140   0.427E-01    0.231E+00
DAV:  35    -0.791776444788E+03   -0.20783E-01   -0.10764E-01  3885   0.441E-01    0.216E+00
DAV:  36    -0.791839157843E+03   -0.62713E-01   -0.55714E-01  3735   0.108E+00    0.182E+00
DAV:  37    -0.791907322228E+03   -0.68164E-01   -0.58761E-01  3885   0.112E+00    0.142E+00
DAV:  38    -0.791933999002E+03   -0.26677E-01   -0.13006E-01  3785   0.596E-01    0.105E+00
DAV:  39    -0.791951760079E+03   -0.17761E-01   -0.43528E-02  3830   0.238E-01    0.104E+00
DAV:  40    -0.791955537167E+03   -0.37771E-02   -0.31069E-02  4185   0.199E-01    0.959E-01
DAV:  41    -0.791970708808E+03   -0.15172E-01   -0.17010E-02  3730   0.205E-01    0.833E-01
DAV:  42    -0.791983385243E+03   -0.12676E-01   -0.20351E-02  3645   0.250E-01    0.664E-01
DAV:  43    -0.791991852012E+03   -0.84668E-02   -0.21157E-02  3820   0.167E-01    0.588E-01
DAV:  44    -0.791995843244E+03   -0.39912E-02   -0.61690E-03  3895   0.111E-01    0.556E-01
DAV:  45    -0.791998726676E+03   -0.28834E-02   -0.42768E-03  3760   0.917E-02    0.520E-01
DAV:  46    -0.792000329520E+03   -0.16028E-02   -0.22179E-03  3755   0.673E-02    0.452E-01
DAV:  47    -0.792001728239E+03   -0.13987E-02   -0.41971E-03  3570   0.913E-02    0.361E-01
DAV:  48    -0.792003006794E+03   -0.12786E-02   -0.36903E-03  3725   0.810E-02    0.279E-01
DAV:  49    -0.792003960256E+03   -0.95346E-03   -0.23575E-03  3560   0.573E-02    0.232E-01
DAV:  50    -0.792004645205E+03   -0.68495E-03   -0.11676E-03  3295   0.399E-02    0.207E-01
DAV:  51    -0.792006282098E+03   -0.16369E-02   -0.75948E-03  3550   0.123E-01    0.179E-01
DAV:  52    -0.792007421837E+03   -0.11397E-02   -0.46273E-03  3445   0.780E-02    0.124E-01
DAV:  53    -0.792008014394E+03   -0.59256E-03   -0.12580E-03  3405   0.415E-02    0.116E-01
DAV:  54    -0.792008965603E+03   -0.95121E-03   -0.38681E-03  3230   0.618E-02    0.104E-01
DAV:  55    -0.792010545754E+03   -0.15802E-02   -0.10083E-02  3430   0.940E-02    0.924E-02
DAV:  56    -0.792011765878E+03   -0.12201E-02   -0.61968E-03  3435   0.762E-02    0.786E-02
DAV:  57    -0.792012024787E+03   -0.25891E-03   -0.46409E-04  2390   0.231E-02    0.794E-02
DAV:  58    -0.792011894040E+03    0.13075E-03   -0.11775E-04  2170   0.144E-02    0.811E-02
DAV:  59    -0.792012173712E+03   -0.27967E-03   -0.52559E-04  2180   0.219E-02    0.800E-02
DAV:  60    -0.792012758138E+03   -0.58443E-03   -0.25199E-03  2465   0.424E-02    0.812E-02
DAV:  61    -0.792012397852E+03    0.36029E-03   -0.95330E-04  2975   0.411E-02    0.744E-02
DAV:  62    -0.792012347700E+03    0.50151E-04   -0.56292E-05  2150   0.111E-02    0.746E-02
DAV:  63    -0.792012214141E+03    0.13356E-03   -0.14399E-04  2045   0.137E-02    0.752E-02
DAV:  64    -0.792011641538E+03    0.57260E-03   -0.22647E-03  2400   0.400E-02    0.769E-02
DAV:  65    -0.792011545903E+03    0.95634E-04   -0.14569E-04  1925   0.139E-02    0.731E-02
DAV:  66    -0.792011534746E+03    0.11157E-04   -0.25445E-05  1755   0.979E-03    0.752E-02
DAV:  67    -0.792011255054E+03    0.27969E-03   -0.64489E-04  2230   0.250E-02    0.816E-02
DAV:  68    -0.792011108669E+03    0.14638E-03   -0.19589E-04  2005   0.163E-02    0.902E-02
DAV:  69    -0.792011118950E+03   -0.10281E-04   -0.59168E-06  1500   0.638E-03    0.878E-02
DAV:  70    -0.792011049047E+03    0.69903E-04   -0.68195E-05  1785   0.102E-02    0.978E-02
DAV:  71    -0.792010960996E+03    0.88051E-04   -0.60306E-05  1780   0.931E-03    0.102E-01
DAV:  72    -0.792011293230E+03   -0.33223E-03   -0.76224E-04  1935   0.239E-02    0.905E-02
DAV:  73    -0.792011855416E+03   -0.56219E-03   -0.24949E-03  2255   0.410E-02    0.842E-02
DAV:  74    -0.792011607492E+03    0.24792E-03   -0.45117E-04  1905   0.214E-02    0.927E-02
DAV:  75    -0.792012169717E+03   -0.56222E-03   -0.24579E-03  2090   0.415E-02    0.896E-02
DAV:  76    -0.792014318179E+03   -0.21485E-02   -0.45090E-02  3085   0.170E-01    0.862E-02
DAV:  77    -0.792015607747E+03   -0.12896E-02   -0.11474E-02  2850   0.884E-02    0.949E-02
DAV:  78    -0.792015840556E+03   -0.23281E-03   -0.28589E-04  1960   0.185E-02    0.105E-01
DAV:  79    -0.792015148910E+03    0.69165E-03   -0.35941E-03  2200   0.505E-02    0.114E-01
DAV:  80    -0.792013189421E+03    0.19595E-02   -0.26252E-02  2920   0.132E-01    0.132E-01
DAV:  81    -0.792012745513E+03    0.44391E-03   -0.32917E-03  2280   0.506E-02    0.125E-01
DAV:  82    -0.792012404450E+03    0.34106E-03   -0.13512E-03  2035   0.323E-02    0.127E-01
DAV:  83    -0.792012124375E+03    0.28008E-03   -0.78006E-04  1965   0.257E-02    0.130E-01
DAV:  84    -0.792012503193E+03   -0.37882E-03   -0.10038E-03  1875   0.281E-02    0.116E-01
DAV:  85    -0.792012943864E+03   -0.44067E-03   -0.16529E-03  2110   0.337E-02    0.109E-01
DAV:  86    -0.792012410343E+03    0.53352E-03   -0.27232E-03  2195   0.458E-02    0.158E-01
DAV:  87    -0.792012458210E+03   -0.47866E-04   -0.30822E-05  1625   0.948E-03    0.160E-01
DAV:  88    -0.792012431547E+03    0.26662E-04   -0.10203E-05  1380   0.614E-03    0.161E-01
DAV:  89    -0.792012675185E+03   -0.24364E-03   -0.42349E-04  1800   0.189E-02    0.153E-01
DAV:  90    -0.792011845435E+03    0.82975E-03   -0.44883E-03  2225   0.555E-02    0.174E-01
DAV:  91    -0.792011164002E+03    0.68143E-03   -0.34906E-03  2340   0.493E-02    0.208E-01
DAV:  92    -0.792010858525E+03    0.30548E-03   -0.97543E-04  1890   0.281E-02    0.216E-01
DAV:  93    -0.792010587448E+03    0.27108E-03   -0.80075E-04  1950   0.259E-02    0.242E-01
DAV:  94    -0.792010503132E+03    0.84316E-04   -0.23321E-04  1995   0.168E-02    0.260E-01
DAV:  95    -0.792010272277E+03    0.23085E-03   -0.44176E-04  1840   0.206E-02    0.273E-01
DAV:  96    -0.792008149605E+03    0.21227E-02   -0.27926E-02  3125   0.136E-01    0.352E-01
DAV:  97    -0.792008248150E+03   -0.98545E-04   -0.24444E-04  1925   0.199E-02    0.337E-01
DAV:  98    -0.792008191135E+03    0.57014E-04   -0.50413E-05  1610   0.968E-03    0.340E-01
DAV:  99    -0.792008788522E+03   -0.59739E-03   -0.26308E-03  2085   0.432E-02    0.329E-01
DAV: 100    -0.792009790949E+03   -0.10024E-02   -0.90070E-03  2420   0.773E-02    0.307E-01
DAV: 101    -0.792013697257E+03   -0.39063E-02   -0.20982E-01  3310   0.368E-01    0.244E-01
DAV: 102    -0.792015182267E+03   -0.14850E-02   -0.29471E-03  2575   0.592E-02    0.320E-01
DAV: 103    -0.792016580022E+03   -0.13978E-02   -0.19006E-02  2860   0.113E-01    0.290E-01
DAV: 104    -0.792017715501E+03   -0.11355E-02   -0.11966E-02  2795   0.897E-02    0.276E-01
DAV: 105    -0.792018290018E+03   -0.57452E-03   -0.23270E-03  2250   0.413E-02    0.271E-01
DAV: 106    -0.792020739671E+03   -0.24497E-02   -0.10273E-01  3305   0.263E-01    0.199E-01
DAV: 107    -0.792021310191E+03   -0.57052E-03   -0.11659E-03  2210   0.315E-02    0.232E-01
DAV: 108    -0.792020544264E+03    0.76593E-03   -0.80759E-03  2455   0.784E-02    0.230E-01
DAV: 109    -0.792019624562E+03    0.91970E-03   -0.93582E-03  2595   0.807E-02    0.234E-01
DAV: 110    -0.792019655219E+03   -0.30656E-04   -0.16626E-04  1635   0.150E-02    0.230E-01
DAV: 111    -0.792010792051E+03    0.88632E-02   -0.41236E-01  3285   0.521E-01    0.292E-01
DAV: 112    -0.792012754073E+03   -0.19620E-02   -0.19333E-03  2770   0.552E-02    0.246E-01
DAV: 113    -0.792012108237E+03    0.64584E-03   -0.52027E-03  2525   0.600E-02    0.271E-01
DAV: 114    -0.792010770450E+03    0.13378E-02   -0.13929E-02  2975   0.957E-02    0.291E-01
DAV: 115    -0.792010394214E+03    0.37624E-03   -0.20958E-03  2175   0.399E-02    0.277E-01
DAV: 116    -0.792008242124E+03    0.21521E-02   -0.32129E-02  3220   0.144E-01    0.268E-01
DAV: 117    -0.792007974075E+03    0.26805E-03   -0.19648E-03  2335   0.394E-02    0.250E-01
DAV: 118    -0.792007546617E+03    0.42746E-03   -0.15908E-03  2195   0.341E-02    0.246E-01
DAV: 119    -0.792007636364E+03   -0.89747E-04   -0.40273E-05  1620   0.980E-03    0.237E-01
DAV: 120    -0.792007670483E+03   -0.34118E-04   -0.75791E-06  1285   0.549E-03    0.236E-01
DAV: 121    -0.792009130221E+03   -0.14597E-02   -0.20601E-02  2550   0.119E-01    0.200E-01
DAV: 122    -0.792010122520E+03   -0.99230E-03   -0.10611E-02  2680   0.854E-02    0.155E-01
DAV: 123    -0.792010788037E+03   -0.66552E-03   -0.67678E-03  2525   0.677E-02    0.149E-01
DAV: 124    -0.792009662082E+03    0.11260E-02   -0.69620E-03  2445   0.691E-02    0.139E-01
DAV: 125    -0.792009464791E+03    0.19729E-03   -0.24206E-04  1745   0.163E-02    0.122E-01
DAV: 126    -0.792008893950E+03    0.57084E-03   -0.11010E-03  2060   0.285E-02    0.121E-01
DAV: 127    -0.792008912785E+03   -0.18835E-04   -0.15676E-05  1360   0.803E-03    0.120E-01
DAV: 128    -0.792008943547E+03   -0.30762E-04   -0.66417E-06  1250   0.481E-03    0.121E-01
DAV: 129    -0.792008926192E+03    0.17355E-04   -0.94736E-06  1275   0.472E-03    0.123E-01
DAV: 130    -0.792008706985E+03    0.21921E-03   -0.41164E-04  1660   0.173E-02    0.126E-01
DAV: 131    -0.792012451987E+03   -0.37450E-02   -0.11976E-01  3200   0.273E-01    0.931E-02
DAV: 132    -0.792013441265E+03   -0.98928E-03   -0.48004E-03  2615   0.618E-02    0.895E-02
DAV: 133    -0.792013379590E+03    0.61675E-04   -0.13160E-04  1735   0.150E-02    0.952E-02
DAV: 134    -0.792013313700E+03    0.65890E-04   -0.26590E-05  1525   0.855E-03    0.972E-02
DAV: 135    -0.792013234218E+03    0.79481E-04   -0.29805E-05  1470   0.748E-03    0.981E-02
DAV: 136    -0.792013006397E+03    0.22782E-03   -0.47219E-04  1810   0.188E-02    0.953E-02
DAV: 137    -0.792012879119E+03    0.12728E-03   -0.58957E-05  1525   0.919E-03    0.963E-02
DAV: 138    -0.792012960962E+03   -0.81843E-04   -0.84545E-05  1540   0.862E-03    0.953E-02
DAV: 139    -0.792012976539E+03   -0.15576E-04   -0.13159E-06  1220   0.246E-03    0.955E-02
DAV: 140    -0.792013061960E+03   -0.85422E-04   -0.23434E-05  1405   0.474E-03    0.947E-02
DAV: 141    -0.792012892829E+03    0.16913E-03   -0.13633E-03  2105   0.342E-02    0.942E-02
DAV: 142    -0.792013132568E+03   -0.23974E-03   -0.13007E-04  1725   0.148E-02    0.910E-02
DAV: 143    -0.792013595184E+03   -0.46262E-03   -0.12242E-03  2090   0.289E-02    0.924E-02
DAV: 144    -0.792013595638E+03   -0.45360E-06   -0.15317E-05  1425   0.786E-03
   1 F= -.79201360E+03 E0= -.79201359E+03  d E =-.205472E-05  mag=     4.0153
