       N       E                     dE             d eps       ncg     rms          rms(c)
DAV:   1     0.134080571406E+05    0.13408E+05   -0.30213E+05  2284   0.125E+03
DAV:   2     0.449693378079E+04   -0.89111E+04   -0.77346E+04  2692   0.341E+02
DAV:   3     0.273848399171E+02   -0.44695E+04   -0.43700E+04  2964   0.234E+02
DAV:   4    -0.911991278243E+03   -0.93938E+03   -0.89416E+03  3356   0.104E+02
DAV:   5    -0.996276247264E+03   -0.84285E+02   -0.83145E+02  3748   0.414E+01    0.139E+02
DAV:   6    -0.664925666856E+03    0.33135E+03   -0.18909E+03  2908   0.575E+01    0.718E+01
DAV:   7    -0.685066520750E+03   -0.20141E+02   -0.10867E+03  3444   0.884E+01    0.877E+01
DAV:   8    -0.703516036944E+03   -0.18450E+02   -0.25001E+02  3964   0.271E+01    0.577E+01
DAV:   9    -0.668168071341E+03    0.35348E+02   -0.13317E+02  3936   0.204E+01    0.715E+01
DAV:  10    -0.664446720205E+03    0.37214E+01   -0.20890E+02  3872   0.170E+01    0.330E+01
DAV:  11    -0.664467302629E+03   -0.20582E-01   -0.60651E+01  3792   0.114E+01    0.499E+01
DAV:  12    -0.662406966032E+03    0.20603E+01   -0.48526E+01  4200   0.102E+01    0.344E+01
DAV:  13    -0.670300208081E+03   -0.78932E+01   -0.55852E+01  3908   0.109E+01    0.254E+01
DAV:  14    -0.678159909610E+03   -0.78597E+01   -0.16647E+01  4012   0.741E+00    0.192E+01
DAV:  15    -0.699207850033E+03   -0.21048E+02   -0.16152E+01  3396   0.647E+00    0.217E+01
DAV:  16    -0.714450198748E+03   -0.15242E+02   -0.13395E+01  3700   0.515E+00    0.195E+01
DAV:  17    -0.720833722736E+03   -0.63835E+01   -0.34081E+00  3804   0.296E+00    0.181E+01
DAV:  18    -0.736901166404E+03   -0.16067E+02   -0.79864E+00  3436   0.444E+00    0.158E+01
DAV:  19    -0.756684784493E+03   -0.19784E+02   -0.16659E+01  3468   0.597E+00    0.137E+01
DAV:  20    -0.760520384442E+03   -0.38356E+01   -0.32594E+00  3732   0.281E+00    0.118E+01
DAV:  21    -0.765669179936E+03   -0.51488E+01   -0.20132E+00  3404   0.220E+00    0.109E+01
DAV:  22    -0.774715800431E+03   -0.90466E+01   -0.62646E+00  3380   0.393E+00    0.155E+01
DAV:  23    -0.779744775509E+03   -0.50290E+01   -0.36689E+00  3444   0.260E+00    0.146E+01
DAV:  24    -0.780833711987E+03   -0.10889E+01   -0.16202E+00  3912   0.177E+00    0.945E+00
DAV:  25    -0.781557734852E+03   -0.72402E+00   -0.74533E-01  3632   0.874E-01    0.101E+01
DAV:  26    -0.781518338128E+03    0.39397E-01   -0.57547E-02  3856   0.354E-01    0.101E+01
DAV:  27    -0.781441796510E+03    0.76542E-01   -0.16216E-02  4380   0.224E-01    0.100E+01
DAV:  28    -0.781447569844E+03   -0.57733E-02   -0.43010E-03  4336   0.112E-01    0.101E+01
DAV:  29    -0.781463895633E+03   -0.16326E-01   -0.17957E-03  4040   0.846E-02    0.101E+01
DAV:  30    -0.781515136280E+03   -0.51241E-01   -0.80031E-02  3976   0.214E-01    0.101E+01
DAV:  31    -0.781531594647E+03   -0.16458E-01   -0.24273E-02  3880   0.127E-01    0.101E+01
DAV:  32    -0.781532362631E+03   -0.76798E-03   -0.92228E-04  3956   0.451E-02    0.101E+01
DAV:  33    -0.781690723021E+03   -0.15836E+00   -0.67464E-02  3848   0.247E-01    0.100E+01
DAV:  34    -0.781677836235E+03    0.12887E-01   -0.48950E-03  3744   0.908E-02    0.100E+01
DAV:  35    -0.781660763971E+03    0.17072E-01   -0.19615E-02  3632   0.233E-01    0.101E+01
DAV:  36    -0.781665812907E+03   -0.50489E-02   -0.58824E-02  3744   0.271E-01    0.111E+01
DAV:  37    -0.781864638604E+03   -0.19883E+00   -0.42490E-02  3424   0.402E-01    0.945E+00
DAV:  38    -0.782610336463E+03   -0.74570E+00   -0.23671E-01  3504   0.550E-01    0.981E+00
DAV:  39    -0.783088618486E+03   -0.47828E+00   -0.39325E-01  3608   0.763E-01    0.942E+00
DAV:  40    -0.783570437433E+03   -0.48182E+00   -0.31787E-01  3936   0.736E-01    0.866E+00
DAV:  41    -0.784388709615E+03   -0.81827E+00   -0.59306E-01  3716   0.908E-01    0.822E+00
DAV:  42    -0.784849672976E+03   -0.46096E+00   -0.69989E-01  3608   0.861E-01    0.912E+00
DAV:  43    -0.785861945047E+03   -0.10123E+01   -0.62458E-01  3640   0.120E+00    0.844E+00
DAV:  44    -0.786566645879E+03   -0.70470E+00   -0.76359E-01  3580   0.954E-01    0.830E+00
DAV:  45    -0.786985175632E+03   -0.41853E+00   -0.62123E-01  3676   0.930E-01    0.789E+00
DAV:  46    -0.787305641795E+03   -0.32047E+00   -0.38611E-01  3640   0.812E-01    0.759E+00
DAV:  47    -0.787836720869E+03   -0.53108E+00   -0.44245E-01  3764   0.845E-01    0.723E+00
DAV:  48    -0.788237713145E+03   -0.40099E+00   -0.20133E+00  3628   0.141E+00    0.699E+00
DAV:  49    -0.788363635944E+03   -0.12592E+00   -0.70438E-01  3748   0.881E-01    0.703E+00
DAV:  50    -0.788537818810E+03   -0.17418E+00   -0.31007E-01  3768   0.612E-01    0.693E+00
DAV:  51    -0.788722294418E+03   -0.18448E+00   -0.22882E+00  3680   0.193E+00    0.754E+00
DAV:  52    -0.789416146222E+03   -0.69385E+00   -0.12397E+00  3536   0.115E+00    0.715E+00
DAV:  53    -0.790318645720E+03   -0.90250E+00   -0.18926E+00  3668   0.141E+00    0.656E+00
DAV:  54    -0.790785822855E+03   -0.46718E+00   -0.10417E+00  3844   0.912E-01    0.601E+00
DAV:  55    -0.790963547588E+03   -0.17772E+00   -0.31266E-01  3844   0.613E-01    0.566E+00
DAV:  56    -0.790470477429E+03    0.49307E+00   -0.16856E-01  3412   0.970E-01    0.624E+00
DAV:  57    -0.790629247846E+03   -0.15877E+00   -0.21011E-01  3524   0.842E-01    0.674E+00
DAV:  58    -0.790665675978E+03   -0.36428E-01   -0.91381E-01  3600   0.124E+00    0.716E+00
DAV:  59    -0.790649362361E+03    0.16314E-01   -0.49787E-01  3672   0.958E-01    0.721E+00
DAV:  60    -0.790652505505E+03   -0.31431E-02   -0.56460E-02  3904   0.297E-01    0.725E+00
DAV:  61    -0.790574265406E+03    0.78240E-01   -0.16804E-01  3540   0.735E-01    0.683E+00
DAV:  62    -0.790570641440E+03    0.36240E-02   -0.55451E-02  3812   0.274E-01    0.674E+00
DAV:  63    -0.790411178360E+03    0.15946E+00   -0.35539E-01  3608   0.874E-01    0.673E+00
DAV:  64    -0.790390755596E+03    0.20423E-01   -0.14177E-01  3596   0.474E-01    0.666E+00
DAV:  65    -0.790396046618E+03   -0.52910E-02   -0.53061E-02  3984   0.299E-01    0.661E+00
DAV:  66    -0.790397891380E+03   -0.18448E-02   -0.14917E-01  3476   0.625E-01    0.677E+00
DAV:  67    -0.790448636504E+03   -0.50745E-01   -0.62038E-02  3664   0.256E-01    0.671E+00
DAV:  68    -0.790604166350E+03   -0.15553E+00   -0.27113E-01  3680   0.667E-01    0.646E+00
DAV:  69    -0.790767544250E+03   -0.16338E+00   -0.45748E-01  3608   0.833E-01    0.639E+00
DAV:  70    -0.790934148677E+03   -0.16660E+00   -0.49014E-01  3608   0.778E-01    0.627E+00
DAV:  71    -0.791348429466E+03   -0.41428E+00   -0.83908E+00  3520   0.396E+00    0.578E+00
DAV:  72    -0.791530699823E+03   -0.18227E+00   -0.84997E-01  3608   0.142E+00    0.419E+00
DAV:  73    -0.791544668693E+03   -0.13969E-01   -0.19232E-01  3752   0.788E-01    0.457E+00
DAV:  74    -0.791523511329E+03    0.21157E-01   -0.15913E-01  3732   0.613E-01    0.473E+00
DAV:  75    -0.791350315928E+03    0.17320E+00   -0.18046E-01  3712   0.796E-01    0.477E+00
DAV:  76    -0.791387478251E+03   -0.37162E-01   -0.25667E-01  3536   0.120E+00    0.488E+00
DAV:  77    -0.791095382233E+03    0.29210E+00   -0.20130E-01  3616   0.670E-01    0.520E+00
DAV:  78    -0.790847417505E+03    0.24796E+00   -0.10968E-01  3780   0.444E-01    0.543E+00
DAV:  79    -0.790719134370E+03    0.12828E+00   -0.99856E-02  3732   0.410E-01    0.552E+00
DAV:  80    -0.790745069848E+03   -0.25935E-01   -0.12635E-01  3560   0.486E-01    0.529E+00
DAV:  81    -0.791756186224E+03   -0.10111E+01   -0.19830E+00  3480   0.197E+00    0.434E+00
DAV:  82    -0.791769774263E+03   -0.13588E-01   -0.28122E-01  3600   0.841E-01    0.444E+00
DAV:  83    -0.791664032531E+03    0.10574E+00   -0.24006E-01  3636   0.740E-01    0.470E+00
DAV:  84    -0.791506430000E+03    0.15760E+00   -0.15336E-01  3664   0.580E-01    0.500E+00
DAV:  85    -0.791486851937E+03    0.19578E-01   -0.22054E-02  3560   0.183E-01    0.502E+00
DAV:  86    -0.790899412488E+03    0.58744E+00   -0.15339E+01  3668   0.667E+00    0.327E+00
DAV:  87    -0.791459823130E+03   -0.56041E+00   -0.21799E+00  3516   0.201E+00    0.245E+00
DAV:  88    -0.791671815079E+03   -0.21199E+00   -0.39585E-01  4000   0.842E-01    0.211E+00
DAV:  89    -0.791801085664E+03   -0.12927E+00   -0.27284E-01  3928   0.623E-01    0.191E+00
DAV:  90    -0.791843311592E+03   -0.42226E-01   -0.25058E-01  3812   0.539E-01    0.179E+00
DAV:  91    -0.791819477841E+03    0.23834E-01   -0.93946E-02  3984   0.395E-01    0.151E+00
DAV:  92    -0.791810708729E+03    0.87691E-02   -0.37339E-02  3976   0.240E-01    0.137E+00
DAV:  93    -0.791817611185E+03   -0.69025E-02   -0.21642E-02  3816   0.165E-01    0.126E+00
DAV:  94    -0.791851904538E+03   -0.34293E-01   -0.22752E-02  3796   0.179E-01    0.107E+00
DAV:  95    -0.791912868817E+03   -0.60964E-01   -0.38266E-02  3656   0.191E-01    0.842E-01
DAV:  96    -0.791947947564E+03   -0.35079E-01   -0.25736E-02  3744   0.177E-01    0.718E-01
DAV:  97    -0.791964408540E+03   -0.16461E-01   -0.15694E-02  3720   0.121E-01    0.599E-01
DAV:  98    -0.791969577924E+03   -0.51694E-02   -0.10979E-02  3668   0.103E-01    0.553E-01
DAV:  99    -0.791973301796E+03   -0.37239E-02   -0.12048E-02  3452   0.968E-02    0.498E-01
DAV: 100    -0.791976734458E+03   -0.34327E-02   -0.20115E-02  3452   0.120E-01    0.448E-01
DAV: 101    -0.791979175530E+03   -0.24411E-02   -0.27909E-02  3444   0.142E-01    0.393E-01
DAV: 102    -0.791981160419E+03   -0.19849E-02   -0.19951E-02  3452   0.119E-01    0.357E-01
DAV: 103    -0.791982567602E+03   -0.14072E-02   -0.16761E-02  3328   0.108E-01    0.336E-01
DAV: 104    -0.791983898297E+03   -0.13307E-02   -0.15981E-02  3232   0.106E-01    0.319E-01
DAV: 105    -0.791985177968E+03   -0.12797E-02   -0.13969E-02  3196   0.992E-02    0.303E-01
DAV: 106    -0.791985946773E+03   -0.76881E-03   -0.47886E-03  3064   0.632E-02    0.320E-01
DAV: 107    -0.791987148650E+03   -0.12019E-02   -0.82906E-03  3040   0.777E-02    0.315E-01
DAV: 108    -0.791988150578E+03   -0.10019E-02   -0.48188E-03  2728   0.600E-02    0.311E-01
DAV: 109    -0.791989578331E+03   -0.14278E-02   -0.92843E-03  3080   0.810E-02    0.305E-01
DAV: 110    -0.791990948444E+03   -0.13701E-02   -0.14309E-02  2880   0.987E-02    0.306E-01
DAV: 111    -0.791991690278E+03   -0.74183E-03   -0.15323E-03  2816   0.381E-02    0.312E-01
DAV: 112    -0.791992811818E+03   -0.11215E-02   -0.69740E-03  2736   0.716E-02    0.305E-01
DAV: 113    -0.791993829490E+03   -0.10177E-02   -0.60560E-03  2836   0.656E-02    0.300E-01
DAV: 114    -0.791994628522E+03   -0.79903E-03   -0.52699E-03  2716   0.615E-02    0.291E-01
DAV: 115    -0.791996281429E+03   -0.16529E-02   -0.25719E-02  3208   0.131E-01    0.279E-01
DAV: 116    -0.791991005268E+03    0.52762E-02   -0.64541E-02  3332   0.217E-01    0.258E-01
DAV: 117    -0.791995884094E+03   -0.48788E-02   -0.15565E-01  3412   0.329E-01    0.194E-01
DAV: 118    -0.791996248491E+03   -0.36440E-03   -0.19750E-03  3104   0.577E-02    0.185E-01
DAV: 119    -0.791999529599E+03   -0.32811E-02   -0.76778E-02  3456   0.229E-01    0.145E-01
DAV: 120    -0.792002190578E+03   -0.26610E-02   -0.35544E-02  3320   0.156E-01    0.122E-01
DAV: 121    -0.792004136471E+03   -0.19459E-02   -0.11489E-02  2896   0.890E-02    0.126E-01
DAV: 122    -0.792005258433E+03   -0.11220E-02   -0.44989E-03  2704   0.568E-02    0.115E-01
DAV: 123    -0.792006313662E+03   -0.10552E-02   -0.47982E-03  2740   0.585E-02    0.115E-01
DAV: 124    -0.792008647464E+03   -0.23338E-02   -0.35934E-02  3224   0.154E-01    0.869E-02
DAV: 125    -0.792011057947E+03   -0.24105E-02   -0.50871E-02  3280   0.182E-01    0.692E-02
DAV: 126    -0.792013467003E+03   -0.24091E-02   -0.10145E-01  3260   0.255E-01    0.626E-02
DAV: 127    -0.792014537531E+03   -0.10705E-02   -0.14890E-03  2468   0.462E-02    0.103E-01
DAV: 128    -0.792014627510E+03   -0.89979E-04   -0.13516E-04  2300   0.149E-02    0.113E-01
DAV: 129    -0.792014589161E+03    0.38349E-04   -0.26918E-05  1896   0.890E-03    0.115E-01
DAV: 130    -0.792014603477E+03   -0.14316E-04   -0.40897E-06  1540   0.536E-03    0.113E-01
DAV: 131    -0.792014750978E+03   -0.14750E-03   -0.40076E-04  1860   0.186E-02    0.114E-01
DAV: 132    -0.792014881212E+03   -0.13023E-03   -0.88118E-05  1768   0.108E-02    0.118E-01
DAV: 133    -0.792015355780E+03   -0.47457E-03   -0.18967E-03  2228   0.365E-02    0.126E-01
DAV: 134    -0.792015880507E+03   -0.52473E-03   -0.26391E-03  2364   0.421E-02    0.135E-01
DAV: 135    -0.792016114639E+03   -0.23413E-03   -0.45436E-04  1876   0.202E-02    0.150E-01
DAV: 136    -0.792015879178E+03    0.23546E-03   -0.65794E-04  1876   0.226E-02    0.158E-01
DAV: 137    -0.792015992340E+03   -0.11316E-03   -0.98268E-05  1684   0.102E-02    0.153E-01
DAV: 138    -0.792016243936E+03   -0.25160E-03   -0.66810E-04  1880   0.211E-02    0.138E-01
DAV: 139    -0.792016576232E+03   -0.33230E-03   -0.13027E-03  2180   0.296E-02    0.126E-01
DAV: 140    -0.792016502057E+03    0.74174E-04   -0.57230E-05  1628   0.102E-02    0.136E-01
DAV: 141    -0.792016442392E+03    0.59665E-04   -0.10019E-05  1400   0.559E-03    0.137E-01
DAV: 142    -0.792016877973E+03   -0.43558E-03   -0.17484E-03  1976   0.340E-02    0.130E-01
DAV: 143    -0.792017503469E+03   -0.62550E-03   -0.48530E-03  2524   0.557E-02    0.108E-01
DAV: 144    -0.792018665349E+03   -0.11619E-02   -0.18610E-02  3048   0.107E-01    0.889E-02
DAV: 145    -0.792019957025E+03   -0.12917E-02   -0.23009E-02  2960   0.118E-01    0.103E-01
DAV: 146    -0.792020847085E+03   -0.89006E-03   -0.97937E-03  2588   0.781E-02    0.117E-01
DAV: 147    -0.792021653808E+03   -0.80672E-03   -0.98495E-03  2696   0.784E-02    0.123E-01
DAV: 148    -0.792022031726E+03   -0.37792E-03   -0.16320E-03  2048   0.343E-02    0.137E-01
DAV: 149    -0.792021990695E+03    0.41031E-04   -0.82923E-05  1672   0.114E-02    0.143E-01
DAV: 150    -0.792021379851E+03    0.61084E-03   -0.45944E-03  2204   0.541E-02    0.145E-01
DAV: 151    -0.792019086325E+03    0.22935E-02   -0.52540E-02  3024   0.180E-01    0.162E-01
DAV: 152    -0.792019374892E+03   -0.28857E-03   -0.52972E-04  1860   0.267E-02    0.128E-01
DAV: 153    -0.792018206228E+03    0.11687E-02   -0.13081E-02  2472   0.908E-02    0.132E-01
DAV: 154    -0.792016271520E+03    0.19347E-02   -0.33739E-02  3180   0.145E-01    0.152E-01
DAV: 155    -0.792016546285E+03   -0.27477E-03   -0.36631E-04  1836   0.235E-02    0.119E-01
DAV: 156    -0.792016659342E+03   -0.11306E-03   -0.40403E-05  1560   0.107E-02    0.118E-01
DAV: 157    -0.792016183640E+03    0.47570E-03   -0.20189E-03  2076   0.368E-02    0.126E-01
DAV: 158    -0.792015743136E+03    0.44050E-03   -0.22013E-03  2152   0.385E-02    0.134E-01
DAV: 159    -0.792015779995E+03   -0.36859E-04   -0.25967E-05  1476   0.866E-03    0.123E-01
DAV: 160    -0.792015980899E+03   -0.20090E-03   -0.32922E-04  1652   0.157E-02    0.122E-01
DAV: 161    -0.792016835310E+03   -0.85441E-03   -0.84085E-03  2292   0.733E-02    0.117E-01
DAV: 162    -0.792018025212E+03   -0.11899E-02   -0.20844E-02  2756   0.114E-01    0.118E-01
DAV: 163    -0.792018836981E+03   -0.81177E-03   -0.98018E-03  2400   0.796E-02    0.157E-01
DAV: 164    -0.792020245257E+03   -0.14083E-02   -0.37398E-02  3104   0.153E-01    0.157E-01
DAV: 165    -0.792020986085E+03   -0.74083E-03   -0.47714E-03  2388   0.579E-02    0.189E-01
DAV: 166    -0.792021325195E+03   -0.33911E-03   -0.11897E-03  2060   0.302E-02    0.186E-01
DAV: 167    -0.792021956635E+03   -0.63144E-03   -0.71343E-03  2332   0.686E-02    0.176E-01
DAV: 168    -0.792022032185E+03   -0.75549E-04   -0.11218E-04  1668   0.134E-02    0.195E-01
DAV: 169    -0.792021798557E+03    0.23363E-03   -0.73024E-04  1732   0.233E-02    0.202E-01
DAV: 170    -0.792020578643E+03    0.12199E-02   -0.16594E-02  2408   0.103E-01    0.223E-01
DAV: 171    -0.792010914441E+03    0.96642E-02   -0.54169E-01  3324   0.578E-01    0.280E-01
DAV: 172    -0.792013109509E+03   -0.21951E-02   -0.62189E-03  2788   0.871E-02    0.179E-01
DAV: 173    -0.792012109573E+03    0.99994E-03   -0.93882E-03  2748   0.834E-02    0.188E-01
DAV: 174    -0.792014415108E+03   -0.23055E-02   -0.42026E-02  2904   0.172E-01    0.149E-01
DAV: 175    -0.792016106143E+03   -0.16910E-02   -0.37807E-02  2864   0.157E-01    0.116E-01
DAV: 176    -0.792017686835E+03   -0.15807E-02   -0.37004E-02  2960   0.153E-01    0.130E-01
DAV: 177    -0.792018819232E+03   -0.11324E-02   -0.18111E-02  2644   0.109E-01    0.116E-01
DAV: 178    -0.792019318821E+03   -0.49959E-03   -0.21251E-03  2132   0.404E-02    0.133E-01
DAV: 179    -0.792019413468E+03   -0.94648E-04   -0.11804E-04  1652   0.122E-02    0.135E-01
DAV: 180    -0.792019471735E+03   -0.58267E-04   -0.92398E-05  1552   0.119E-02    0.136E-01
DAV: 181    -0.792019133379E+03    0.33836E-03   -0.16967E-03  1912   0.351E-02    0.152E-01
DAV: 182    -0.792019160193E+03   -0.26814E-04   -0.10342E-05  1284   0.591E-03    0.150E-01
DAV: 183    -0.792019185754E+03   -0.25561E-04   -0.49496E-06  1240   0.433E-03    0.149E-01
DAV: 184    -0.792018342185E+03    0.84357E-03   -0.73206E-03  2244   0.701E-02    0.146E-01
DAV: 185    -0.792018415809E+03   -0.73624E-04   -0.10697E-04  1600   0.126E-02    0.134E-01
DAV: 186    -0.792019377314E+03   -0.96151E-03   -0.98954E-03  2276   0.791E-02    0.125E-01
DAV: 187    -0.792020169556E+03   -0.79224E-03   -0.79855E-03  2380   0.715E-02    0.110E-01
DAV: 188    -0.792020858200E+03   -0.68864E-03   -0.49294E-03  2288   0.566E-02    0.118E-01
DAV: 189    -0.792021000686E+03   -0.14249E-03   -0.22754E-04  1656   0.156E-02    0.123E-01
DAV: 190    -0.792020958004E+03    0.42682E-04   -0.32551E-05  1432   0.783E-03    0.127E-01
DAV: 191    -0.792023362508E+03   -0.24045E-02   -0.21985E-01  3336   0.374E-01    0.118E-01
DAV: 192    -0.792024394197E+03   -0.10317E-02   -0.15620E-03  2556   0.474E-02    0.134E-01
DAV: 193    -0.792024359019E+03    0.35178E-04   -0.51825E-04  2016   0.244E-02    0.138E-01
DAV: 194    -0.792024399882E+03   -0.40863E-04   -0.37611E-05  1512   0.930E-03    0.137E-01
DAV: 195    -0.792024366716E+03    0.33165E-04   -0.19820E-05  1356   0.636E-03    0.139E-01
DAV: 196    -0.792023901602E+03    0.46511E-03   -0.11103E-02  2420   0.900E-02    0.159E-01
DAV: 197    -0.792024149479E+03   -0.24788E-03   -0.39915E-04  1744   0.219E-02    0.158E-01
DAV: 198    -0.792024681763E+03   -0.53228E-03   -0.60449E-03  2296   0.616E-02    0.156E-01
DAV: 199    -0.792024963724E+03   -0.28196E-03   -0.15655E-03  1884   0.325E-02    0.166E-01
DAV: 200    -0.792025313351E+03   -0.34963E-03   -0.27470E-03  2192   0.427E-02    0.172E-01
DAV: 201    -0.792025031739E+03    0.28161E-03   -0.23969E-03  2012   0.430E-02    0.185E-01
DAV: 202    -0.792025059168E+03   -0.27430E-04   -0.19775E-04  1596   0.141E-02    0.200E-01
DAV: 203    -0.792024990529E+03    0.68639E-04   -0.37957E-04  1668   0.177E-02    0.218E-01
DAV: 204    -0.792024958824E+03    0.31706E-04   -0.15793E-04  1568   0.122E-02    0.228E-01
DAV: 205    -0.792024965813E+03   -0.69895E-05   -0.48578E-06  1248   0.528E-03
   1 F= -.79202497E+03 E0= -.79202497E+03  d E =-.951130E-06  mag=     1.9897
