       N       E                     dE             d eps       ncg     rms          rms(c)
DAV:   1     0.134345110515E+05    0.13435E+05   -0.30212E+05  2271   0.125E+03
DAV:   2     0.452550131175E+04   -0.89090E+04   -0.77259E+04  2682   0.342E+02
DAV:   3     0.396079624831E+02   -0.44859E+04   -0.43887E+04  2961   0.235E+02
DAV:   4    -0.909527143343E+03   -0.94914E+03   -0.89662E+03  3354   0.104E+02
DAV:   5    -0.996093069298E+03   -0.86566E+02   -0.85203E+02  3723   0.419E+01    0.139E+02
DAV:   6    -0.664330191081E+03    0.33176E+03   -0.18855E+03  2883   0.576E+01    0.715E+01
DAV:   7    -0.683357795416E+03   -0.19028E+02   -0.10766E+03  3474   0.885E+01    0.852E+01
DAV:   8    -0.700617202938E+03   -0.17259E+02   -0.24552E+02  4008   0.269E+01    0.559E+01
DAV:   9    -0.667953790133E+03    0.32663E+02   -0.13083E+02  3939   0.203E+01    0.721E+01
DAV:  10    -0.663171512317E+03    0.47823E+01   -0.16792E+02  3924   0.170E+01    0.315E+01
DAV:  11    -0.663635558969E+03   -0.46405E+00   -0.54632E+01  3777   0.113E+01    0.532E+01
DAV:  12    -0.660017580044E+03    0.36180E+01   -0.31375E+01  4152   0.947E+00    0.236E+01
DAV:  13    -0.671739588703E+03   -0.11722E+02   -0.23064E+01  3777   0.697E+00    0.213E+01
DAV:  14    -0.684446466202E+03   -0.12707E+02   -0.19510E+01  3741   0.771E+00    0.174E+01
DAV:  15    -0.702013901215E+03   -0.17567E+02   -0.14398E+01  3684   0.662E+00    0.120E+01
DAV:  16    -0.723108141168E+03   -0.21094E+02   -0.99963E+00  3507   0.469E+00    0.135E+01
DAV:  17    -0.732787486369E+03   -0.96793E+01   -0.42032E+00  3984   0.318E+00    0.115E+01
DAV:  18    -0.752111538981E+03   -0.19324E+02   -0.11223E+01  3222   0.547E+00    0.105E+01
DAV:  19    -0.766616835343E+03   -0.14505E+02   -0.12182E+01  3318   0.465E+00    0.859E+00
DAV:  20    -0.774054733640E+03   -0.74379E+01   -0.55404E+00  3687   0.320E+00    0.689E+00
DAV:  21    -0.780910905221E+03   -0.68562E+01   -0.35685E+00  3378   0.236E+00    0.609E+00
DAV:  22    -0.785215996948E+03   -0.43051E+01   -0.24781E+00  3591   0.245E+00    0.517E+00
DAV:  23    -0.787219283405E+03   -0.20033E+01   -0.96457E-01  3963   0.167E+00    0.404E+00
DAV:  24    -0.789067235440E+03   -0.18480E+01   -0.41543E-01  3681   0.101E+00    0.312E+00
DAV:  25    -0.790602084335E+03   -0.15348E+01   -0.55837E-01  3855   0.139E+00    0.225E+00
DAV:  26    -0.790848528225E+03   -0.24644E+00   -0.74083E-01  3885   0.517E-01    0.784E+00
DAV:  27    -0.790850250435E+03   -0.17222E-02   -0.12633E-01  4161   0.356E-01    0.543E+00
DAV:  28    -0.790920042659E+03   -0.69792E-01   -0.34112E-02  4311   0.272E-01    0.567E+00
DAV:  29    -0.790927588131E+03   -0.75455E-02   -0.79496E-03  4095   0.121E-01    0.596E+00
DAV:  30    -0.790993022143E+03   -0.65434E-01   -0.17430E-02  4110   0.198E-01    0.694E+00
DAV:  31    -0.791005662108E+03   -0.12640E-01   -0.15857E-02  4227   0.177E-01    0.721E+00
DAV:  32    -0.791004385424E+03    0.12767E-02   -0.53424E-02  4191   0.234E-01    0.625E+00
DAV:  33    -0.791139975104E+03   -0.13559E+00   -0.89457E-02  3966   0.424E-01    0.903E+00
DAV:  34    -0.791149945472E+03   -0.99704E-02   -0.50604E-02  3885   0.302E-01    0.892E+00
DAV:  35    -0.791154260224E+03   -0.43148E-02   -0.18180E-02  3564   0.112E-01    0.904E+00
DAV:  36    -0.791155570296E+03   -0.13101E-02   -0.96160E-03  4089   0.672E-02    0.906E+00
DAV:  37    -0.791127836139E+03    0.27734E-01   -0.14202E-01  4053   0.233E-01    0.821E+00
DAV:  38    -0.791111391862E+03    0.16444E-01   -0.23288E-02  3627   0.124E-01    0.721E+00
DAV:  39    -0.791114142373E+03   -0.27505E-02   -0.25143E-03  3123   0.709E-02    0.690E+00
DAV:  40    -0.791106393510E+03    0.77489E-02   -0.14352E-01  3885   0.170E-01    0.412E+00
DAV:  41    -0.791122442536E+03   -0.16049E-01   -0.74379E-02  3924   0.213E-01    0.303E+00
DAV:  42    -0.791141725183E+03   -0.19283E-01   -0.14302E-02  3525   0.126E-01    0.445E+00
DAV:  43    -0.791126306812E+03    0.15418E-01   -0.12569E-01  3975   0.197E-01    0.167E+00
DAV:  44    -0.791141155234E+03   -0.14848E-01   -0.21871E-02  3888   0.198E-01    0.105E+00
DAV:  45    -0.791150602172E+03   -0.94469E-02   -0.25330E-02  3804   0.265E-01    0.768E-01
DAV:  46    -0.791161045722E+03   -0.10444E-01   -0.14073E-02  3705   0.167E-01    0.637E-01
DAV:  47    -0.791177481605E+03   -0.16436E-01   -0.27400E-02  3789   0.187E-01    0.712E-01
DAV:  48    -0.791193458491E+03   -0.15977E-01   -0.27044E-02  3657   0.154E-01    0.189E+00
DAV:  49    -0.791193031670E+03    0.42682E-03   -0.24303E-03  3270   0.825E-02    0.192E+00
DAV:  50    -0.791193364469E+03   -0.33280E-03   -0.86310E-04  3357   0.377E-02    0.178E+00
DAV:  51    -0.791194093541E+03   -0.72907E-03   -0.88814E-03  3927   0.103E-01    0.112E+00
DAV:  52    -0.791198926969E+03   -0.48334E-02   -0.44124E-03  3669   0.905E-02    0.891E-01
DAV:  53    -0.791201344526E+03   -0.24176E-02   -0.26877E-03  3582   0.802E-02    0.679E-01
DAV:  54    -0.791203634759E+03   -0.22902E-02   -0.24672E-03  3639   0.710E-02    0.659E-01
DAV:  55    -0.791203819718E+03   -0.18496E-03   -0.42156E-04  2685   0.339E-02    0.656E-01
DAV:  56    -0.791206275165E+03   -0.24554E-02   -0.94986E-03  3765   0.166E-01    0.820E-01
DAV:  57    -0.791208663255E+03   -0.23881E-02   -0.39774E-03  3795   0.839E-02    0.123E+00
DAV:  58    -0.791208654415E+03    0.88395E-05   -0.55811E-04  3456   0.510E-02    0.127E+00
DAV:  59    -0.791207830029E+03    0.82439E-03   -0.39307E-04  2757   0.346E-02    0.114E+00
DAV:  60    -0.791207135682E+03    0.69435E-03   -0.25872E-03  3762   0.764E-02    0.104E+00
DAV:  61    -0.791206850271E+03    0.28541E-03   -0.95030E-03  3969   0.137E-01    0.183E+00
DAV:  62    -0.791208274275E+03   -0.14240E-02   -0.29279E-03  3459   0.847E-02    0.191E+00
DAV:  63    -0.791208096343E+03    0.17793E-03   -0.52341E-04  3039   0.489E-02    0.202E+00
DAV:  64    -0.791208658770E+03   -0.56243E-03   -0.41296E-04  2748   0.250E-02    0.218E+00
DAV:  65    -0.791205789292E+03    0.28695E-02   -0.27407E-03  3075   0.552E-02    0.174E+00
DAV:  66    -0.791204441438E+03    0.13479E-02   -0.18800E-03  3756   0.722E-02    0.165E+00
DAV:  67    -0.791205190848E+03   -0.74941E-03   -0.41693E-04  2976   0.327E-02    0.158E+00
DAV:  68    -0.791205672733E+03   -0.48189E-03   -0.15333E-04  2472   0.207E-02    0.159E+00
DAV:  69    -0.791205435458E+03    0.23728E-03   -0.15663E-04  2430   0.250E-02    0.164E+00
DAV:  70    -0.791205693937E+03   -0.25848E-03   -0.18817E-04  2292   0.403E-02    0.170E+00
DAV:  71    -0.791206727756E+03   -0.10338E-02   -0.28110E-02  4035   0.186E-01    0.167E+00
DAV:  72    -0.791206544354E+03    0.18340E-03   -0.54759E-04  3171   0.437E-02    0.174E+00
DAV:  73    -0.791206510720E+03    0.33634E-04   -0.63246E-05  2322   0.186E-02    0.172E+00
DAV:  74    -0.791206722249E+03   -0.21153E-03   -0.21334E-05  1998   0.985E-03    0.175E+00
DAV:  75    -0.791206639214E+03    0.83035E-04   -0.36138E-04  2085   0.303E-02    0.158E+00
DAV:  76    -0.791203824759E+03    0.28145E-02   -0.27549E-02  3819   0.116E-01    0.628E-01
DAV:  77    -0.791203241370E+03    0.58339E-03   -0.46859E-03  3837   0.120E-01    0.536E-01
DAV:  78    -0.791202842651E+03    0.39872E-03   -0.20175E-03  3315   0.528E-02    0.513E-01
DAV:  79    -0.791203132520E+03   -0.28987E-03   -0.31044E-04  2607   0.262E-02    0.496E-01
DAV:  80    -0.791204255578E+03   -0.11231E-02   -0.85515E-04  2802   0.299E-02    0.492E-01
DAV:  81    -0.791207304758E+03   -0.30492E-02   -0.65424E-04  3717   0.716E-02    0.477E-01
DAV:  82    -0.791208106451E+03   -0.80169E-03   -0.19123E-03  3471   0.529E-02    0.517E-01
DAV:  83    -0.791209306754E+03   -0.12003E-02   -0.40687E-03  3693   0.633E-02    0.556E-01
DAV:  84    -0.791210110286E+03   -0.80353E-03   -0.37270E-04  2886   0.332E-02    0.526E-01
DAV:  85    -0.791211844673E+03   -0.17344E-02   -0.20055E-03  3318   0.499E-02    0.560E-01
DAV:  86    -0.791209736948E+03    0.21077E-02   -0.28854E-02  3915   0.221E-01    0.456E-01
DAV:  87    -0.791212770773E+03   -0.30338E-02   -0.24713E-03  3615   0.842E-02    0.422E-01
DAV:  88    -0.791214360739E+03   -0.15900E-02   -0.13383E-03  3504   0.575E-02    0.423E-01
DAV:  89    -0.791214592136E+03   -0.23140E-03   -0.41123E-04  2991   0.321E-02    0.433E-01
DAV:  90    -0.791214047595E+03    0.54454E-03   -0.22431E-04  2868   0.468E-02    0.456E-01
DAV:  91    -0.791217407351E+03   -0.33598E-02   -0.41158E-03  3306   0.731E-02    0.424E-01
DAV:  92    -0.791220515675E+03   -0.31083E-02   -0.36447E-03  3861   0.106E-01    0.412E-01
DAV:  93    -0.791223134821E+03   -0.26191E-02   -0.54434E-03  3750   0.129E-01    0.398E-01
DAV:  94    -0.791223920537E+03   -0.78572E-03   -0.13613E-03  3261   0.521E-02    0.431E-01
DAV:  95    -0.791221476033E+03    0.24445E-02   -0.50548E-03  3831   0.102E-01    0.446E-01
DAV:  96    -0.791215480918E+03    0.59951E-02   -0.15453E-02  3801   0.213E-01    0.557E-01
DAV:  97    -0.791215892289E+03   -0.41137E-03   -0.21702E-03  3162   0.782E-02    0.539E-01
DAV:  98    -0.791215971054E+03   -0.78765E-04   -0.27167E-04  3171   0.289E-02    0.529E-01
DAV:  99    -0.791215954818E+03    0.16236E-04   -0.32625E-05  2121   0.944E-03    0.530E-01
DAV: 100    -0.791216040302E+03   -0.85484E-04   -0.73293E-06  1929   0.716E-03    0.528E-01
DAV: 101    -0.791219441552E+03   -0.34013E-02   -0.41444E-03  3684   0.812E-02    0.579E-01
DAV: 102    -0.791220573002E+03   -0.11314E-02   -0.55198E-04  3630   0.655E-02    0.517E-01
DAV: 103    -0.791222145141E+03   -0.15721E-02   -0.83992E-04  3531   0.583E-02    0.490E-01
DAV: 104    -0.791224277290E+03   -0.21321E-02   -0.41924E-03  3837   0.108E-01    0.434E-01
DAV: 105    -0.791225763265E+03   -0.14860E-02   -0.33360E-03  3435   0.757E-02    0.389E-01
DAV: 106    -0.791225651022E+03    0.11224E-03   -0.53975E-04  2826   0.424E-02    0.397E-01
DAV: 107    -0.791226684912E+03   -0.10339E-02   -0.99443E-04  2964   0.501E-02    0.391E-01
DAV: 108    -0.791228303202E+03   -0.16183E-02   -0.19271E-03  3717   0.628E-02    0.406E-01
DAV: 109    -0.791227663396E+03    0.63981E-03   -0.26181E-04  2937   0.314E-02    0.403E-01
DAV: 110    -0.791227656153E+03    0.72439E-05   -0.25797E-05  2067   0.111E-02
   1 F= -.79122766E+03 E0= -.79122416E+03  d E =-.699217E-02  mag=     4.0423
