       N       E                     dE             d eps       ncg     rms          rms(c)
DAV:   1     0.134382976608E+05    0.13438E+05   -0.30195E+05  2266   0.125E+03
DAV:   2     0.453661060229E+04   -0.89017E+04   -0.77244E+04  2672   0.342E+02
DAV:   3     0.106613211401E+03   -0.44300E+04   -0.43255E+04  2960   0.236E+02
DAV:   4    -0.898398181081E+03   -0.10050E+04   -0.95159E+03  3302   0.104E+02
DAV:   5    -0.995589243526E+03   -0.97191E+02   -0.95766E+02  3722   0.436E+01    0.139E+02
DAV:   6    -0.663555413709E+03    0.33203E+03   -0.18790E+03  2878   0.576E+01    0.701E+01
DAV:   7    -0.683478011482E+03   -0.19923E+02   -0.10428E+03  3454   0.865E+01    0.851E+01
DAV:   8    -0.700516957631E+03   -0.17039E+02   -0.23737E+02  3916   0.263E+01    0.560E+01
DAV:   9    -0.668521408417E+03    0.31996E+02   -0.13021E+02  3918   0.205E+01    0.725E+01
DAV:  10    -0.663475082308E+03    0.50463E+01   -0.19518E+02  3870   0.176E+01    0.323E+01
DAV:  11    -0.663446339381E+03    0.28743E-01   -0.58720E+01  3852   0.116E+01    0.472E+01
DAV:  12    -0.663291701211E+03    0.15464E+00   -0.49651E+01  4140   0.108E+01    0.387E+01
DAV:  13    -0.669598052043E+03   -0.63064E+01   -0.66192E+01  3924   0.117E+01    0.249E+01
DAV:  14    -0.677255435103E+03   -0.76574E+01   -0.20908E+01  3828   0.782E+00    0.192E+01
DAV:  15    -0.697635261610E+03   -0.20380E+02   -0.15390E+01  3380   0.643E+00    0.149E+01
DAV:  16    -0.717409192746E+03   -0.19774E+02   -0.17412E+01  3674   0.547E+00    0.217E+01
DAV:  17    -0.725442425460E+03   -0.80332E+01   -0.46675E+00  3752   0.334E+00    0.200E+01
DAV:  18    -0.735547019729E+03   -0.10105E+02   -0.43985E+00  3546   0.356E+00    0.182E+01
DAV:  19    -0.751860490475E+03   -0.16313E+02   -0.12872E+01  3358   0.577E+00    0.110E+01
DAV:  20    -0.762164681628E+03   -0.10304E+02   -0.86163E+00  3594   0.355E+00    0.872E+00
DAV:  21    -0.770139037062E+03   -0.79744E+01   -0.40117E+00  3454   0.299E+00    0.984E+00
DAV:  22    -0.772994949170E+03   -0.28559E+01   -0.14446E+00  3838   0.177E+00    0.101E+01
DAV:  23    -0.775688789092E+03   -0.26938E+01   -0.77944E-01  3594   0.150E+00    0.914E+00
DAV:  24    -0.781832575775E+03   -0.61438E+01   -0.36913E+00  3420   0.277E+00    0.693E+00
DAV:  25    -0.785361144028E+03   -0.35286E+01   -0.24199E+00  3588   0.265E+00    0.571E+00
DAV:  26    -0.787899235095E+03   -0.25381E+01   -0.17883E+00  3626   0.225E+00    0.102E+01
DAV:  27    -0.788525120161E+03   -0.62589E+00   -0.43720E-01  3768   0.101E+00    0.110E+01
DAV:  28    -0.788527027843E+03   -0.19077E-02   -0.75050E-02  4054   0.429E-01    0.110E+01
DAV:  29    -0.788673108506E+03   -0.14608E+00   -0.24453E-02  4304   0.263E-01    0.110E+01
DAV:  30    -0.788729727781E+03   -0.56619E-01   -0.22072E-02  3884   0.291E-01    0.108E+01
DAV:  31    -0.788706052707E+03    0.23675E-01   -0.27666E-01  3606   0.112E+00    0.940E+00
DAV:  32    -0.788730700233E+03   -0.24648E-01   -0.36404E-01  3694   0.112E+00    0.742E+00
DAV:  33    -0.789475128529E+03   -0.74443E+00   -0.38995E-01  3638   0.123E+00    0.456E+00
DAV:  34    -0.790241034331E+03   -0.76591E+00   -0.24318E-01  3614   0.101E+00    0.446E+00
DAV:  35    -0.790638367907E+03   -0.39733E+00   -0.22495E-01  3786   0.887E-01    0.361E+00
DAV:  36    -0.791133843649E+03   -0.49548E+00   -0.26496E-01  3678   0.110E+00    0.285E+00
DAV:  37    -0.791516242616E+03   -0.38240E+00   -0.40353E-01  3800   0.111E+00    0.209E+00
DAV:  38    -0.791751514712E+03   -0.23527E+00   -0.59460E-01  3740   0.123E+00    0.137E+00
DAV:  39    -0.791859501553E+03   -0.10799E+00   -0.33808E-01  3822   0.887E-01    0.120E+00
DAV:  40    -0.791890183825E+03   -0.30682E-01   -0.65889E-02  3830   0.382E-01    0.119E+00
DAV:  41    -0.791899502538E+03   -0.93187E-02   -0.16090E-02  4178   0.183E-01    0.110E+00
DAV:  42    -0.791922271723E+03   -0.22769E-01   -0.29126E-02  3716   0.223E-01    0.943E-01
DAV:  43    -0.791953704276E+03   -0.31433E-01   -0.13851E-01  3612   0.489E-01    0.718E-01
DAV:  44    -0.791965859671E+03   -0.12155E-01   -0.36471E-02  3756   0.269E-01    0.693E-01
DAV:  45    -0.791971103438E+03   -0.52438E-02   -0.92220E-03  3902   0.122E-01    0.642E-01
DAV:  46    -0.791976107680E+03   -0.50042E-02   -0.11739E-02  3710   0.116E-01    0.584E-01
DAV:  47    -0.791982194328E+03   -0.60866E-02   -0.22264E-02  3548   0.167E-01    0.460E-01
DAV:  48    -0.791986131091E+03   -0.39368E-02   -0.10491E-02  3756   0.120E-01    0.370E-01
DAV:  49    -0.791989056200E+03   -0.29251E-02   -0.67987E-03  3480   0.855E-02    0.309E-01
DAV:  50    -0.791990720691E+03   -0.16645E-02   -0.30869E-03  3352   0.573E-02    0.280E-01
DAV:  51    -0.791994727325E+03   -0.40066E-02   -0.14888E-02  3648   0.145E-01    0.253E-01
DAV:  52    -0.791995852370E+03   -0.11250E-02   -0.56277E-03  3362   0.826E-02    0.234E-01
DAV:  53    -0.791996884022E+03   -0.10317E-02   -0.30165E-03  3254   0.558E-02    0.223E-01
DAV:  54    -0.791997893533E+03   -0.10095E-02   -0.35812E-03  3244   0.665E-02    0.192E-01
DAV:  55    -0.791998696115E+03   -0.80258E-03   -0.43148E-03  3338   0.717E-02    0.156E-01
DAV:  56    -0.791999291610E+03   -0.59549E-03   -0.43921E-03  3352   0.726E-02    0.149E-01
DAV:  57    -0.792000470326E+03   -0.11787E-02   -0.30838E-03  3234   0.652E-02    0.121E-01
DAV:  58    -0.792001355758E+03   -0.88543E-03   -0.34347E-03  3334   0.639E-02    0.979E-02
DAV:  59    -0.792001782792E+03   -0.42703E-03   -0.10596E-03  2924   0.346E-02    0.917E-02
DAV:  60    -0.792001982847E+03   -0.20006E-03   -0.29397E-04  2234   0.197E-02    0.901E-02
DAV:  61    -0.792002306765E+03   -0.32392E-03   -0.83531E-04  2288   0.293E-02    0.839E-02
DAV:  62    -0.792002956383E+03   -0.64962E-03   -0.33170E-03  2926   0.523E-02    0.718E-02
DAV:  63    -0.792003606896E+03   -0.65051E-03   -0.37976E-03  2646   0.534E-02    0.682E-02
DAV:  64    -0.792003303633E+03    0.30326E-03   -0.74795E-04  2178   0.280E-02    0.795E-02
DAV:  65    -0.792003634091E+03   -0.33046E-03   -0.70800E-04  2018   0.266E-02    0.759E-02
DAV:  66    -0.792004700341E+03   -0.10662E-02   -0.10190E-02  2992   0.839E-02    0.825E-02
DAV:  67    -0.792005381640E+03   -0.68130E-03   -0.41477E-03  2566   0.557E-02    0.109E-01
DAV:  68    -0.792005013726E+03    0.36791E-03   -0.11981E-03  2096   0.332E-02    0.119E-01
DAV:  69    -0.792005253708E+03   -0.23998E-03   -0.41007E-04  1880   0.208E-02    0.116E-01
DAV:  70    -0.792006380873E+03   -0.11272E-02   -0.11670E-02  2474   0.863E-02    0.124E-01
DAV:  71    -0.792007317972E+03   -0.93710E-03   -0.82131E-03  2542   0.735E-02    0.146E-01
DAV:  72    -0.792007245265E+03    0.72708E-04   -0.18421E-04  1832   0.176E-02    0.166E-01
DAV:  73    -0.792007305921E+03   -0.60657E-04   -0.47376E-05  1612   0.963E-03    0.163E-01
DAV:  74    -0.792007570978E+03   -0.26506E-03   -0.57538E-04  1852   0.213E-02    0.167E-01
DAV:  75    -0.792007124826E+03    0.44615E-03   -0.14758E-03  1904   0.339E-02    0.165E-01
DAV:  76    -0.792007553971E+03   -0.42914E-03   -0.22724E-03  2488   0.475E-02    0.155E-01
DAV:  77    -0.792007686961E+03   -0.13299E-03   -0.18091E-04  2200   0.163E-02    0.167E-01
DAV:  78    -0.792007869514E+03   -0.18255E-03   -0.30520E-04  1824   0.181E-02    0.169E-01
DAV:  79    -0.792008233244E+03   -0.36373E-03   -0.12737E-03  1952   0.306E-02    0.172E-01
DAV:  80    -0.792007512349E+03    0.72089E-03   -0.41409E-03  2082   0.548E-02    0.170E-01
DAV:  81    -0.792007577368E+03   -0.65019E-04   -0.38999E-05  1516   0.971E-03    0.166E-01
DAV:  82    -0.792008453976E+03   -0.87661E-03   -0.81158E-03  2208   0.714E-02    0.172E-01
DAV:  83    -0.792009038618E+03   -0.58464E-03   -0.37354E-03  2210   0.501E-02    0.194E-01
DAV:  84    -0.792009396219E+03   -0.35760E-03   -0.12660E-03  1888   0.314E-02    0.212E-01
DAV:  85    -0.792009476212E+03   -0.79993E-04   -0.92769E-05  1590   0.119E-02    0.220E-01
DAV:  86    -0.792009378180E+03    0.98032E-04   -0.66512E-05  1514   0.109E-02    0.224E-01
DAV:  87    -0.792009248196E+03    0.12998E-03   -0.15791E-04  1618   0.121E-02    0.222E-01
DAV:  88    -0.792009166201E+03    0.81994E-04   -0.85937E-05  1572   0.104E-02    0.217E-01
DAV:  89    -0.792009317917E+03   -0.15172E-03   -0.18351E-04  1598   0.131E-02    0.215E-01
DAV:  90    -0.792009328033E+03   -0.10116E-04   -0.10890E-05  1316   0.750E-03    0.214E-01
DAV:  91    -0.792009681732E+03   -0.35370E-03   -0.13684E-03  2428   0.339E-02    0.206E-01
DAV:  92    -0.792009505307E+03    0.17643E-03   -0.27170E-04  1910   0.190E-02    0.215E-01
DAV:  93    -0.792009415498E+03    0.89809E-04   -0.89673E-05  1556   0.101E-02    0.212E-01
DAV:  94    -0.792009409842E+03    0.56561E-05   -0.48095E-05  1474   0.107E-02
   1 F= -.79200941E+03 E0= -.79200941E+03  d E =-.113756E-05  mag=     4.0206
