 vasp.6.4.3 19Mar24 (build Jul 25 2024 07:57:48) complex                        
  
 executed on             LinuxIFC date 2024.10.07  14:48:07
 running  120 mpi-ranks, on    1 nodes
 distrk:  each k-point on  120 cores,    1 groups
 distr:  one band on NCORE=  10 cores,   12 groups


--------------------------------------------------------------------------------------------------------


 INCAR:
   ISPIN = 2
   ENCUT = 450
   ALGO = Normal
   EDIFF = 1E-5
   NELM = 500
   ISMEAR = 0
   SIGMA = 0.050000
   LDAU = .TRUE.
   LDAUTYPE = 2
   LDAUL = 3 -1 -1 -1
   LDAUU = 7.00 0.00 0.00 0.00
   LDAUJ = 0.70 0.00 0.00 0.00
   LDAUPRINT = 0
   LMAXMIX = 6
   IBRION = 2
   NSW = 0
   POTIM = 0.500000
   ISIF = 0
   EDIFFG = -0.050000
   NPAR = 12
   LREAL = AUTO
   NSIM = 1
   LPLANE = .TRUE.
   LAECHG = .FALSE.
   LCHARG = .FALSE.
   LWAVE = .FALSE.
   LELF = .FALSE.
   LVTOT = .FALSE.
   LVHAR = .FALSE.

 POTCAR:    PAW_PBE Ce 23Dec2003                  
 POTCAR:    PAW_PBE Rh_pv 25Jan2005               
 POTCAR:    PAW_PBE N 08Apr2002                   
 POTCAR:    PAW_PBE O 08Apr2002                   
 -----------------------------------------------------------------------------
|                                                                             |
|           W    W    AA    RRRRR   N    N  II  N    N   GGGG   !!!           |
|           W    W   A  A   R    R  NN   N  II  NN   N  G    G  !!!           |
|           W    W  A    A  R    R  N N  N  II  N N  N  G       !!!           |
|           W WW W  AAAAAA  RRRRR   N  N N  II  N  N N  G  GGG   !            |
|           WW  WW  A    A  R   R   N   NN  II  N   NN  G    G                |
|           W    W  A    A  R    R  N    N  II  N    N   GGGG   !!!           |
|                                                                             |
|     You use a magnetic or noncollinear calculation, but did not specify     |
|     the initial magnetic moment with the MAGMOM tag. Note that a            |
|     default of 1 will be used for all atoms. This ferromagnetic setup       |
|     may break the symmetry of the crystal, in particular it may rule        |
|     out finding an antiferromagnetic solution. Thence, we recommend         |
|     setting the initial magnetic moment manually or verifying carefully     |
|     that this magnetic setup is desired.                                    |
|                                                                             |
 -----------------------------------------------------------------------------

 POTCAR:    PAW_PBE Ce 23Dec2003                  
   VRHFIN =Ce : [core= Kr 4d10]                                                                     
   LEXCH  = PE                                                                                      
   EATOM  =  1063.0861 eV,   78.1346 Ry                                                             
                                                                                                    
   TITEL  = PAW_PBE Ce 23Dec2003                                                                    
   LULTRA =        F    use ultrasoft PP ?                                                          
   IUNSCR =        1    unscreen: 0-lin 1-nonlin 2-no                                               
   RPACOR =    1.800    partial core radius                                                         
   POMASS =  140.115; ZVAL   =   12.000    mass and valenz                                          
   RCORE  =    2.700    outmost cutoff radius                                                       
   RWIGS  =    2.500; RWIGS  =    1.323    wigner-seitz radius (au A)                               
   ENMAX  =  273.042; ENMIN  =  204.781 eV                                                          
   RCLOC  =    1.810    cutoff for local pot                                                        
   LCOR   =        T    correct aug charges                                                         
   LPAW   =        T    paw PP                                                                      
   EAUG   =  580.196                                                                                
   DEXC   =    0.000                                                                                
   RMAX   =    2.749    core radius for proj-oper                                                   
   RAUG   =    1.300    factor for augmentation sphere                                              
   RDEP   =    2.810    radius for radial grids                                                     
   RDEPT  =    2.162    core radius for aug-charge                                                  
                                                                                                    
   Atomic configuration                                                                             
   14 entries                                                                                       
     n  l   j            E        occ.                                                              
     1  0  0.50    -40258.9816   2.0000                                                             
     2  0  0.50     -6445.4884   2.0000                                                             
     2  1  1.50     -5771.7470   6.0000                                                             
     3  0  0.50     -1387.9739   2.0000                                                             
     3  1  1.50     -1173.8158   6.0000                                                             
     3  2  2.50      -869.9108  10.0000                                                             
     4  0  0.50      -280.8706   2.0000                                                             
     4  1  1.50      -210.9815   6.0000                                                             
     4  2  2.50      -110.4558  10.0000                                                             
     5  0  0.50       -40.5819   2.0000                                                             
     6  0  0.50        -3.7444   2.0000                                                             
     5  1  1.50       -23.2188   6.0000                                                             
     5  2  2.50        -3.0598   1.0000                                                             
     4  3  2.50        -5.3970   1.0000                                                             
   Description                                                                                      
     l       E           TYP  RCUT    TYP  RCUT                                                     
     0    -40.5819164     23  1.500                                                                 
     0     -3.7443793     23  2.300                                                                 
     1    -23.2188445     23  2.000                                                                 
     1     40.8174780     23  2.300                                                                 
     2     -3.0597556     23  2.500                                                                 
     2     13.6058260     23  2.500                                                                 
     3     -5.3970469     23  2.700                                                                 
     3     -5.8505052     23  2.700                                                                 
  local pseudopotential read in
  partial core-charges read in
  partial kinetic energy density read in
  atomic valenz-charges read in
  non local Contribution for L=           0  read in
    real space projection operators read in
  non local Contribution for L=           0  read in
    real space projection operators read in
  non local Contribution for L=           1  read in
    real space projection operators read in
  non local Contribution for L=           1  read in
    real space projection operators read in
  non local Contribution for L=           2  read in
    real space projection operators read in
  non local Contribution for L=           2  read in
    real space projection operators read in
  non local Contribution for L=           3  read in
    real space projection operators read in
  non local Contribution for L=           3  read in
    real space projection operators read in
    PAW grid and wavefunctions read in
 
   number of l-projection  operators is LMAX  =           8
   number of lm-projection operators is LMMAX =          32
 
 POTCAR:    PAW_PBE Rh_pv 25Jan2005               
   VRHFIN =Rh: 4p5s4d                                                                               
   LEXCH  = PE                                                                                      
   EATOM  =  2226.4782 eV,  163.6415 Ry                                                             
                                                                                                    
   TITEL  = PAW_PBE Rh_pv 25Jan2005                                                                 
   LULTRA =        F    use ultrasoft PP ?                                                          
   IUNSCR =        1    unscreen: 0-lin 1-nonlin 2-no                                               
   RPACOR =    2.000    partial core radius                                                         
   POMASS =  102.906; ZVAL   =   15.000    mass and valenz                                          
   RCORE  =    2.400    outmost cutoff radius                                                       
   RWIGS  =    2.650; RWIGS  =    1.402    wigner-seitz radius (au A)                               
   ENMAX  =  247.408; ENMIN  =  185.556 eV                                                          
   ICORE  =        3    local potential                                                             
   LCOR   =        T    correct aug charges                                                         
   LPAW   =        T    paw PP                                                                      
   EAUG   =  425.654                                                                                
   DEXC   =    0.000                                                                                
   RMAX   =    2.461    core radius for proj-oper                                                   
   RAUG   =    1.300    factor for augmentation sphere                                              
   RDEP   =    2.536    radius for radial grids                                                     
   RDEPT  =    1.975    core radius for aug-charge                                                  
                                                                                                    
   Atomic configuration                                                                             
   11 entries                                                                                       
     n  l   j            E        occ.                                                              
     1  0  0.50    -23034.1986   2.0000                                                             
     2  0  0.50     -3339.2387   2.0000                                                             
     2  1  1.50     -2992.3290   6.0000                                                             
     3  0  0.50      -596.7250   2.0000                                                             
     3  1  1.50      -482.7183   6.0000                                                             
     3  2  2.50      -300.5356  10.0000                                                             
     4  0  0.50       -82.4809   2.0000                                                             
     4  1  0.50       -50.4082   6.0000                                                             
     4  2  2.50        -5.9408   8.0000                                                             
     5  0  0.50        -4.2999   1.0000                                                             
     4  3  2.50        -1.3606   0.0000                                                             
   Description                                                                                      
     l       E           TYP  RCUT    TYP  RCUT                                                     
     1    -50.4082326     23  2.100                                                                 
     1      4.0817478     23  2.100                                                                 
     2     -5.9408148     23  2.400                                                                 
     2     -7.3013974     23  2.400                                                                 
     0     -4.2998579     23  2.400                                                                 
     0     13.6058260     23  2.400                                                                 
     3     -4.0817478     23  2.400                                                                 
  local pseudopotential read in
  partial core-charges read in
  partial kinetic energy density read in
  atomic valenz-charges read in
  non local Contribution for L=           1  read in
    real space projection operators read in
  non local Contribution for L=           1  read in
    real space projection operators read in
  non local Contribution for L=           2  read in
    real space projection operators read in
  non local Contribution for L=           2  read in
    real space projection operators read in
  non local Contribution for L=           0  read in
    real space projection operators read in
  non local Contribution for L=           0  read in
    real space projection operators read in
    PAW grid and wavefunctions read in
 
   number of l-projection  operators is LMAX  =           6
   number of lm-projection operators is LMMAX =          18
 
 POTCAR:    PAW_PBE N 08Apr2002                   
   VRHFIN =N: s2p3                                                                                  
   LEXCH  = PE                                                                                      
   EATOM  =   264.5486 eV,   19.4438 Ry                                                             
                                                                                                    
   TITEL  = PAW_PBE N 08Apr2002                                                                     
   LULTRA =        F    use ultrasoft PP ?                                                          
   IUNSCR =        1    unscreen: 0-lin 1-nonlin 2-no                                               
   RPACOR =    1.200    partial core radius                                                         
   POMASS =   14.001; ZVAL   =    5.000    mass and valenz                                          
   RCORE  =    1.500    outmost cutoff radius                                                       
   RWIGS  =    1.400; RWIGS  =    0.741    wigner-seitz radius (au A)                               
   ENMAX  =  400.000; ENMIN  =  300.000 eV                                                          
   ICORE  =        2    local potential                                                             
   LCOR   =        T    correct aug charges                                                         
   LPAW   =        T    paw PP                                                                      
   EAUG   =  627.112                                                                                
   DEXC   =    0.000                                                                                
   RMAX   =    1.529    core radius for proj-oper                                                   
   RAUG   =    1.300    factor for augmentation sphere                                              
   RDEP   =    1.514    radius for radial grids                                                     
   RDEPT  =    1.338    core radius for aug-charge                                                  
                                                                                                    
   Atomic configuration                                                                             
    4 entries                                                                                       
     n  l   j            E        occ.                                                              
     1  0  0.50      -384.7179   2.0000                                                             
     2  0  0.50       -18.5828   2.0000                                                             
     2  1  0.50        -7.0898   3.0000                                                             
     3  2  1.50        -6.8029   0.0000                                                             
   Description                                                                                      
     l       E           TYP  RCUT    TYP  RCUT                                                     
     0    -18.5828119     23  1.200                                                                 
     0    -13.5018863     23  1.200                                                                 
     1     -7.0897853     23  1.500                                                                 
     1      9.5240782     23  1.500                                                                 
     2     -6.8029130      7  1.500                                                                 
  local pseudopotential read in
  partial core-charges read in
  partial kinetic energy density read in
  atomic valenz-charges read in
  non local Contribution for L=           0  read in
    real space projection operators read in
  non local Contribution for L=           0  read in
    real space projection operators read in
  non local Contribution for L=           1  read in
    real space projection operators read in
  non local Contribution for L=           1  read in
    real space projection operators read in
    PAW grid and wavefunctions read in
 
   number of l-projection  operators is LMAX  =           4
   number of lm-projection operators is LMMAX =           8
 
 POTCAR:    PAW_PBE O 08Apr2002                   
   VRHFIN =O: s2p4                                                                                  
   LEXCH  = PE                                                                                      
   EATOM  =   432.3788 eV,   31.7789 Ry                                                             
                                                                                                    
   TITEL  = PAW_PBE O 08Apr2002                                                                     
   LULTRA =        F    use ultrasoft PP ?                                                          
   IUNSCR =        1    unscreen: 0-lin 1-nonlin 2-no                                               
   RPACOR =    1.200    partial core radius                                                         
   POMASS =   16.000; ZVAL   =    6.000    mass and valenz                                          
   RCORE  =    1.520    outmost cutoff radius                                                       
   RWIGS  =    1.550; RWIGS  =    0.820    wigner-seitz radius (au A)                               
   ENMAX  =  400.000; ENMIN  =  300.000 eV                                                          
   ICORE  =        2    local potential                                                             
   LCOR   =        T    correct aug charges                                                         
   LPAW   =        T    paw PP                                                                      
   EAUG   =  605.392                                                                                
   DEXC   =    0.000                                                                                
   RMAX   =    1.553    core radius for proj-oper                                                   
   RAUG   =    1.300    factor for augmentation sphere                                              
   RDEP   =    1.550    radius for radial grids                                                     
   RDEPT  =    1.329    core radius for aug-charge                                                  
                                                                                                    
   Atomic configuration                                                                             
    4 entries                                                                                       
     n  l   j            E        occ.                                                              
     1  0  0.50      -514.6923   2.0000                                                             
     2  0  0.50       -23.9615   2.0000                                                             
     2  1  0.50        -9.0305   4.0000                                                             
     3  2  1.50        -9.5241   0.0000                                                             
   Description                                                                                      
     l       E           TYP  RCUT    TYP  RCUT                                                     
     0    -23.9615318     23  1.200                                                                 
     0     -9.5240782     23  1.200                                                                 
     1     -9.0304911     23  1.520                                                                 
     1      8.1634956     23  1.520                                                                 
     2     -9.5240782      7  1.500                                                                 
  local pseudopotential read in
  partial core-charges read in
  partial kinetic energy density read in
  kinetic energy density of atom read in
  atomic valenz-charges read in
  non local Contribution for L=           0  read in
    real space projection operators read in
  non local Contribution for L=           0  read in
    real space projection operators read in
  non local Contribution for L=           1  read in
    real space projection operators read in
  non local Contribution for L=           1  read in
    real space projection operators read in
    PAW grid and wavefunctions read in
 
   number of l-projection  operators is LMAX  =           4
   number of lm-projection operators is LMMAX =           8
 
 Optimization of the real space projectors (new method)

 maximal supplied QI-value         = 13.98
 optimisation between [QCUT,QGAM] = [ 10.77, 21.68] = [ 32.47,131.56] Ry 
 Optimized for a Real-space Cutoff    1.65 Angstroem

   l    n(q)    QCUT    max X(q) W(low)/X(q) W(high)/X(q)  e(spline) 
   0     11    10.768     8.553    0.18E-04    0.41E-05    0.16E-06
   0     11    10.768     8.106    0.25E-04    0.54E-05    0.33E-06
   1     10    10.768     4.160    0.11E-04    0.68E-05    0.90E-07
   1     10    10.768     3.597    0.10E-04    0.15E-04    0.17E-06
   2     10    10.768     8.183    0.23E-03    0.18E-03    0.41E-06
   2     10    10.768     6.077    0.16E-03    0.13E-03    0.30E-06
   3      9    10.768   116.013    0.24E-03    0.16E-03    0.27E-06
   3      9    10.768   108.937    0.24E-03    0.16E-03    0.27E-06
 Optimization of the real space projectors (new method)

 maximal supplied QI-value         = 15.68
 optimisation between [QCUT,QGAM] = [ 10.82, 21.64] = [ 32.80,131.19] Ry 
 Optimized for a Real-space Cutoff    1.42 Angstroem

   l    n(q)    QCUT    max X(q) W(low)/X(q) W(high)/X(q)  e(spline) 
   1      9    10.822     3.143    0.12E-03    0.12E-03    0.48E-07
   1      9    10.822     5.034    0.38E-03    0.33E-03    0.14E-06
   2      8    10.822    64.180    0.41E-03    0.53E-03    0.18E-06
   2      8    10.822    61.342    0.42E-03    0.54E-03    0.18E-06
   0      9    10.822    55.593    0.16E-03    0.16E-03    0.53E-07
   0      9    10.822    26.178    0.14E-03    0.14E-03    0.48E-07
 Optimization of the real space projectors (new method)

 maximal supplied QI-value         = 25.13
 optimisation between [QCUT,QGAM] = [ 10.81, 21.61] = [ 32.71,130.83] Ry 
 Optimized for a Real-space Cutoff    1.23 Angstroem

   l    n(q)    QCUT    max X(q) W(low)/X(q) W(high)/X(q)  e(spline) 
   0      8    10.807    79.467    0.34E-03    0.68E-03    0.21E-06
   0      8    10.807    66.151    0.34E-03    0.67E-03    0.21E-06
   1      7    10.807    14.030    0.45E-03    0.13E-02    0.11E-05
   1      7    10.807     9.831    0.48E-03    0.13E-02    0.11E-05
 Optimization of the real space projectors (new method)

 maximal supplied QI-value         = 24.76
 optimisation between [QCUT,QGAM] = [ 10.64, 21.54] = [ 31.73,129.89] Ry 
 Optimized for a Real-space Cutoff    1.23 Angstroem

   l    n(q)    QCUT    max X(q) W(low)/X(q) W(high)/X(q)  e(spline) 
   0      8    10.645    20.381    0.38E-03    0.60E-03    0.15E-06
   0      8    10.645    15.268    0.40E-03    0.65E-03    0.17E-06
   1      7    10.645     5.964    0.30E-03    0.63E-03    0.18E-06
   1      7    10.645     5.382    0.24E-03    0.53E-03    0.16E-06
  PAW_PBE Ce 23Dec2003                  :
 energy of atom  1       EATOM=-1063.0861
 kinetic energy error for atom=    0.0271 (will be added to EATOM!!)
  PAW_PBE Rh_pv 25Jan2005               :
 energy of atom  2       EATOM=-2226.4782
 kinetic energy error for atom=    0.0099 (will be added to EATOM!!)
  PAW_PBE N 08Apr2002                   :
 energy of atom  3       EATOM= -264.5486
 kinetic energy error for atom=    0.0253 (will be added to EATOM!!)
  PAW_PBE O 08Apr2002                   :
 energy of atom  4       EATOM= -432.3788
 kinetic energy error for atom=    0.0389 (will be added to EATOM!!)
 
 
 POSCAR:    Ce   Rh   N    O
  positions in direct lattice
  velocities in cartesian coordinates


 exchange-correlation table for PE
   RHO(1)=    0.500       N(1)  =     2000
   RHO(2)=  100.500       N(2)  =     4000

 VTST: version 4.1, (05/19/21)

 CHAIN: initializing optimizer
 
 OPT: Using VASP Conjugate-Gradient optimizer
 CHAIN: Read ICHAIN            0
 
 POSCAR:    Ce   Rh   N    O
  positions in direct lattice
  velocities in cartesian coordinates
 


--------------------------------------------------------------------------------------------------------


 ion  position               nearest neighbor table
   1  0.083  0.167  0.105-  75 2.30  57 2.38  68 2.38  47 2.38  39 2.38  43 2.38  55 2.38
   2  0.333  0.167  0.105-  76 2.31  55 2.38  58 2.38  39 2.38  44 2.38  48 2.38  67 2.38
   3  0.583  0.167  0.105-  77 2.32  59 2.38  67 2.38  48 2.38  40 2.38  45 2.38  56 2.38
   4  0.833  0.167  0.105-  78 2.32  60 2.38  56 2.38  40 2.38  47 2.38  46 2.38  68 2.38
   5  0.083  0.417  0.105-  71 2.29  61 2.38  60 2.38  49 2.38  50 2.38  47 2.38  57 2.38
   6  0.333  0.417  0.105-  79 2.36  57 2.38  69 2.38  50 2.38  51 2.38  39 2.38  58 2.38
   7  0.583  0.417  0.105-  72 2.36  62 2.38  58 2.38  51 2.38  52 2.38  48 2.38  59 2.38
   8  0.833  0.417  0.105-  80 2.30  70 2.38  59 2.38  52 2.38  49 2.38  40 2.38  60 2.38
   9  0.083  0.667  0.105-  81 2.30  70 2.38  63 2.38  53 2.38  49 2.38  41 2.38  61 2.38
  10  0.333  0.667  0.105-  82 2.37  61 2.38  64 2.38  41 2.38  50 2.38  54 2.38  69 2.38
  11  0.583  0.667  0.105-  69 2.38  65 2.38  54 2.38  42 2.38  51 2.38  62 2.38  83 2.48
  12  0.833  0.667  0.105-  84 2.37  66 2.38  62 2.38  42 2.38  53 2.38  52 2.38  70 2.38
  13  0.083  0.917  0.105-  73 2.33  55 2.38  43 2.38  66 2.38  53 2.38  44 2.38  63 2.38
  14  0.333  0.917  0.105-  85 2.31  63 2.38  67 2.38  44 2.38  41 2.38  45 2.38  64 2.38
  15  0.583  0.917  0.105-  74 2.34  64 2.38  56 2.38  45 2.38  46 2.38  54 2.38  65 2.38
  16  0.833  0.917  0.105-  86 2.36  68 2.38  65 2.38  46 2.38  66 2.38  43 2.38  42 2.38
  17  0.166  0.084  0.244-  87 2.30  99 2.34  73 2.35  55 2.35  76 2.39  88 2.41  75 2.41
  18  0.416  0.083  0.244-  92 2.32  88 2.33  67 2.36  89 2.36  76 2.38  85 2.38  77 2.41
  19  0.667  0.085  0.243- 100 2.33  56 2.34  77 2.36  90 2.36  78 2.38  89 2.40  74 2.45
  20  0.920  0.086  0.243-  87 2.30  91 2.34  68 2.34  75 2.37  78 2.40  86 2.42  90 2.45
  21  0.165  0.333  0.243-  94 2.32  57 2.34  75 2.36  91 2.36  71 2.39  79 2.41  99 2.43
  22  0.412  0.324  0.243-  76 2.28  99 2.33  92 2.34  58 2.34  72 2.37  79 2.37  95 2.52
  23  0.668  0.333  0.243-  96 2.28  59 2.35 100 2.37  77 2.38  80 2.39  72 2.41  92 2.44
  24  0.917  0.333  0.242-  60 2.33  80 2.35  71 2.36  93 2.37  78 2.38  91 2.38 100 2.40
  25  0.164  0.581  0.243-  94 2.31  61 2.34  93 2.34  81 2.35  71 2.39  82 2.43 101 2.45
  26  0.409  0.580  0.245-  82 2.37  69 2.38  79 2.39  94 2.44  83 2.51  33 3.26
  27  0.672  0.579  0.245-  84 2.34  72 2.39  62 2.39  96 2.44  83 2.54
  28  0.918  0.582  0.243-  70 2.35  96 2.36  97 2.36  84 2.36  93 2.37  81 2.39  80 2.41
  29  0.166  0.832  0.244-  97 2.27 101 2.35  73 2.36  63 2.36  85 2.40  81 2.41  88 2.42
  30  0.410  0.837  0.243-  85 2.27 101 2.30  89 2.33  64 2.34  82 2.35  74 2.42  98 2.48
  31  0.670  0.842  0.241-  86 2.26  74 2.28  65 2.30  90 2.30  83 2.31
  32  0.926  0.837  0.246-  73 2.37  66 2.42  84 2.45  97 2.47  87 2.49  86 2.51 102 2.56
  33  0.536  0.581  0.359-  95 1.86  35 2.49  34 2.52  36 2.53  26 3.26
  34  0.535  0.742  0.374-  98 1.89  37 2.01  35 2.44  36 2.51  33 2.52
  35  0.693  0.743  0.372- 102 1.85  38 2.04  34 2.44  33 2.49  36 2.55
  36  0.575  0.665  0.459-  37 2.00  38 2.16  34 2.51  33 2.53  35 2.55
  37  0.597  0.803  0.452-  38 1.37  36 2.00  34 2.01
  38  0.691  0.818  0.445- 103 1.24  37 1.37  35 2.04  36 2.16
  39  0.250  0.250  0.070-   2 2.38   1 2.38   6 2.38
  40  0.750  0.250  0.070-   4 2.38   3 2.38   8 2.38
  41  0.250  0.750  0.070-  10 2.38  14 2.38   9 2.38
  42  0.750  0.750  0.070-  12 2.38  11 2.38  16 2.38
  43  0.000  0.000  0.070-  13 2.38  16 2.38   1 2.38
  44  0.250  0.000  0.070-  14 2.38  13 2.38   2 2.38
  45  0.500  0.000  0.070-  15 2.38   3 2.38  14 2.38
  46  0.750  0.000  0.070-  16 2.38  15 2.38   4 2.38
  47  0.000  0.250  0.070-   1 2.38   4 2.38   5 2.38
  48  0.500  0.250  0.070-   3 2.38   2 2.38   7 2.38
  49  0.000  0.500  0.070-   5 2.38   8 2.38   9 2.38
  50  0.250  0.500  0.070-   6 2.38  10 2.38   5 2.38
  51  0.500  0.500  0.070-   7 2.38  11 2.38   6 2.38
  52  0.750  0.500  0.070-   8 2.38   7 2.38  12 2.38
  53  0.000  0.750  0.070-   9 2.38  12 2.38  13 2.38
  54  0.500  0.750  0.070-  11 2.38  15 2.38  10 2.38
  55  0.167  0.083  0.140-  17 2.35   2 2.38  13 2.38   1 2.38
  56  0.667  0.083  0.140-  19 2.34  15 2.38   4 2.38   3 2.38
  57  0.167  0.333  0.140-  21 2.34   6 2.38   1 2.38   5 2.38
  58  0.417  0.333  0.140-  22 2.34   2 2.38   7 2.38   6 2.38
  59  0.667  0.333  0.140-  23 2.35   3 2.38   8 2.38   7 2.38
  60  0.917  0.333  0.140-  24 2.33   4 2.38   5 2.38   8 2.38
  61  0.167  0.583  0.140-  25 2.34  10 2.38   5 2.38   9 2.38
  62  0.667  0.583  0.140-   7 2.38  12 2.38  11 2.38  27 2.39
  63  0.167  0.833  0.140-  29 2.36  14 2.38   9 2.38  13 2.38
  64  0.417  0.833  0.140-  30 2.34  15 2.38  10 2.38  14 2.38
  65  0.667  0.833  0.140-  31 2.30  16 2.38  11 2.38  15 2.38
  66  0.917  0.833  0.140-  12 2.38  16 2.38  13 2.38  32 2.42
  67  0.417  0.083  0.140-  18 2.36   3 2.38  14 2.38   2 2.38
  68  0.917  0.083  0.140-  20 2.34   1 2.38  16 2.38   4 2.38
  69  0.417  0.583  0.140-  11 2.38   6 2.38  10 2.38  26 2.38
  70  0.917  0.583  0.140-  28 2.35   8 2.38   9 2.38  12 2.38
  71  0.081  0.415  0.206-   5 2.29  24 2.36  21 2.39  25 2.39
  72  0.578  0.413  0.209-   7 2.36  22 2.37  27 2.39  23 2.41
  73  0.089  0.920  0.208-  13 2.33  17 2.35  29 2.36  32 2.37
  74  0.580  0.913  0.208-  31 2.28  15 2.34  30 2.42  19 2.45
  75  0.084  0.169  0.206-   1 2.30  21 2.36  20 2.37  17 2.41
  76  0.333  0.166  0.207-  22 2.28   2 2.31  18 2.38  17 2.39
  77  0.583  0.166  0.207-   3 2.32  19 2.36  23 2.38  18 2.41
  78  0.833  0.166  0.207-   4 2.32  24 2.38  19 2.38  20 2.40
  79  0.335  0.414  0.209-   6 2.36  22 2.37  26 2.39  21 2.41
  80  0.834  0.414  0.206-   8 2.30  24 2.35  23 2.39  28 2.41
  81  0.085  0.665  0.206-   9 2.30  25 2.35  28 2.39  29 2.41
  82  0.335  0.672  0.209-  30 2.35  10 2.37  26 2.37  25 2.43
  83  0.588  0.677  0.214-  31 2.31  11 2.48  26 2.51  27 2.54
  84  0.835  0.665  0.209-  27 2.34  28 2.36  12 2.37  32 2.45
  85  0.333  0.917  0.207-  30 2.27  14 2.31  18 2.38  29 2.40
  86  0.829  0.915  0.209-  31 2.26  16 2.36  20 2.42  32 2.51
  87  0.007  0.013  0.280-  20 2.30  17 2.30  32 2.49
  88  0.253  0.002  0.279-  18 2.33  17 2.41  29 2.42
  89  0.498  1.000  0.278-  30 2.33  18 2.36  19 2.40
  90  0.748  0.001  0.279-  31 2.30  19 2.36  20 2.45
  91  1.000  0.250  0.278-  20 2.34  21 2.36  24 2.38
  92  0.496  0.245  0.279-  18 2.32  22 2.34  23 2.44
  93  0.000  0.498  0.278-  25 2.34  24 2.37  28 2.37
  94  0.237  0.494  0.279-  25 2.31  21 2.32  26 2.44
  95  0.491  0.481  0.303-  33 1.86  22 2.52
  96  0.755  0.490  0.280-  23 2.28  28 2.36  27 2.44
  97  0.009  0.746  0.281-  29 2.27  28 2.36  32 2.47
  98  0.496  0.765  0.299-  34 1.89  30 2.48
  99  0.250  0.247  0.279-  22 2.33  17 2.34  21 2.43
 100  0.749  0.248  0.278-  19 2.33  23 2.37  24 2.40
 101  0.251  0.753  0.279-  30 2.30  29 2.35  25 2.45
 102  0.760  0.759  0.301-  35 1.85  32 2.56
 103  0.767  0.879  0.471-  38 1.24
 
  LATTYP: Found a hexagonal cell.
 ALAT       =    15.5323886871
 C/A-ratio  =     1.4603015063
  
  Lattice vectors:
  
 A1 = (  15.5323886871,   0.0000000000,   0.0000000000)
 A2 = (  -7.7661943436,  13.4514431845,   0.0000000000)
 A3 = (   0.0000000000,   0.0000000000,  22.6819705963)


Analysis of symmetry for initial positions (statically):
=====================================================================
 Subroutine PRICEL returns:
 Original cell was already a primitive cell.
 

 Routine SETGRP: Setting up the symmetry group for a 
 hexagonal supercell.


 Subroutine GETGRP returns: Found  1 space group operations
 (whereof  1 operations were pure point group operations)
 out of a pool of 24 trial point group operations.


The static configuration has the point symmetry C_1 .


Analysis of symmetry for dynamics (positions and initial velocities):
=====================================================================
 Subroutine PRICEL returns:
 Original cell was already a primitive cell.
 

 Routine SETGRP: Setting up the symmetry group for a 
 hexagonal supercell.


 Subroutine GETGRP returns: Found  1 space group operations
 (whereof  1 operations were pure point group operations)
 out of a pool of 24 trial point group operations.


The dynamic configuration has the point symmetry C_1 .


Analysis of constrained symmetry for selective dynamics:
=====================================================================
 Subroutine PRICEL returns:
 Original cell was already a primitive cell.
 

 Routine SETGRP: Setting up the symmetry group for a 
 hexagonal supercell.


 Subroutine GETGRP returns: Found  1 space group operations
 (whereof  1 operations were pure point group operations)
 out of a pool of 24 trial point group operations.


The constrained configuration has the point symmetry C_1 .


Analysis of structural, dynamic, and magnetic symmetry:
=====================================================================
 Subroutine PRICEL returns:
 Original cell was already a primitive cell.
 

 Routine SETGRP: Setting up the symmetry group for a 
 hexagonal supercell.


 Subroutine GETGRP returns: Found  1 space group operations
 (whereof  1 operations were pure point group operations)
 out of a pool of 24 trial point group operations.


The overall configuration has the point symmetry C_1 .


 Subroutine INISYM returns: Found  1 space group operations
 (whereof  1 operations are pure point group operations),
 and found     1 'primitive' translations


----------------------------------------------------------------------------------------

                                     Primitive cell                                     

  volume of cell :    4739.0132

  direct lattice vectors                    reciprocal lattice vectors
    15.532388687  0.000000000  0.000000000     0.064381598  0.037170733  0.000000000
    -7.766194344 13.451443185  0.000000000     0.000000000  0.074341466  0.000000000
     0.000000000  0.000000000 22.681970596     0.000000000  0.000000000  0.044087880

  length of vectors
    15.532388687 15.532388687 22.681970596     0.074341466  0.074341466  0.044087880

  position of ions in fractional coordinates (direct lattice)
     0.083333001  0.166666999  0.104837000
     0.333332986  0.166666999  0.104837000
     0.583333015  0.166666999  0.104837000
     0.833333015  0.166666999  0.104837000
     0.083333001  0.416667014  0.104837000
     0.333332986  0.416667014  0.104837000
     0.583333015  0.416667014  0.104837000
     0.833333015  0.416667014  0.104837000
     0.083333001  0.666666985  0.104837000
     0.333332986  0.666666985  0.104837000
     0.583333015  0.666666985  0.104837000
     0.833333015  0.666666985  0.104837000
     0.083333001  0.916666985  0.104837000
     0.333332986  0.916666985  0.104837000
     0.583333015  0.916666985  0.104837000
     0.833333015  0.916666985  0.104837000
     0.166394646  0.083649139  0.243584287
     0.415626795  0.083134249  0.243765654
     0.666768478  0.085218489  0.242936700
     0.919556321  0.085541106  0.243057023
     0.165339400  0.332864618  0.242775592
     0.411886031  0.323613622  0.242751914
     0.667810857  0.332749309  0.243251637
     0.916614777  0.332957618  0.242303882
     0.164224367  0.581454164  0.242953783
     0.408998445  0.580457590  0.244692803
     0.671522931  0.579072268  0.244956915
     0.918178646  0.582356374  0.243252350
     0.165779842  0.832282428  0.243930812
     0.410257453  0.837161013  0.242720372
     0.670231637  0.842194984  0.240947058
     0.925944789  0.836666510  0.246228484
     0.536072460  0.581208316  0.359388528
     0.534822353  0.741665220  0.373746521
     0.692618171  0.742593943  0.371822965
     0.574979413  0.665303026  0.459322297
     0.596524542  0.803072460  0.451906160
     0.690867030  0.817608732  0.445223628
     0.250000000  0.250000000  0.069890998
     0.750000000  0.250000000  0.069890998
     0.250000000  0.750000000  0.069890998
     0.750000000  0.750000000  0.069890998
     0.000000000  0.000000000  0.069890998
     0.250000000  0.000000000  0.069890998
     0.500000000  0.000000000  0.069890998
     0.750000000  0.000000000  0.069890998
     0.000000000  0.250000000  0.069890998
     0.500000000  0.250000000  0.069890998
     0.000000000  0.500000000  0.069890998
     0.250000000  0.500000000  0.069890998
     0.500000000  0.500000000  0.069890998
     0.750000000  0.500000000  0.069890998
     0.000000000  0.750000000  0.069890998
     0.500000000  0.750000000  0.069890998
     0.166666999  0.083333001  0.139781997
     0.666666985  0.083333001  0.139781997
     0.166666999  0.333332986  0.139781997
     0.416667014  0.333332986  0.139781997
     0.666666985  0.333332986  0.139781997
     0.916666985  0.333332986  0.139781997
     0.166666999  0.583333015  0.139781997
     0.666666985  0.583333015  0.139781997
     0.166666999  0.833333015  0.139781997
     0.416667014  0.833333015  0.139781997
     0.666666985  0.833333015  0.139781997
     0.916665971  0.833333015  0.139781997
     0.416667014  0.083333001  0.139781997
     0.916666985  0.083333001  0.139781997
     0.416667014  0.583333015  0.139781997
     0.916666985  0.583333015  0.139781997
     0.081169084  0.415099900  0.205906356
     0.578208248  0.412734573  0.209025400
     0.089292477  0.919735065  0.207662550
     0.580417775  0.912501231  0.208161740
     0.084193751  0.168936365  0.206045346
     0.332845352  0.165633953  0.206604168
     0.583498573  0.166368874  0.207118432
     0.832967343  0.166457539  0.207024300
     0.335138387  0.413761366  0.209049775
     0.834047088  0.414372636  0.206188979
     0.084539744  0.665107955  0.206348441
     0.335139451  0.671877319  0.209065034
     0.588068583  0.676921475  0.213858235
     0.835037780  0.665318314  0.209440514
     0.332659120  0.917228300  0.206713611
     0.828972009  0.915353744  0.209055574
     0.006591310  0.013044199  0.279674364
     0.253233052  0.002010067  0.279354880
     0.498381245  0.999893521  0.277900429
     0.747799587  0.001262864  0.278510635
     0.999876238  0.249593515  0.277692934
     0.496457561  0.245423669  0.278949017
     0.000406517  0.498353846  0.277904740
     0.237273948  0.493984939  0.279107698
     0.490727252  0.481066751  0.303170237
     0.754574712  0.490411436  0.280255041
     0.009229845  0.745620271  0.280974259
     0.495996943  0.764865338  0.299211641
     0.249644630  0.247064868  0.278634842
     0.748825823  0.247643937  0.278168272
     0.250570846  0.752832971  0.279311986
     0.759625833  0.759295637  0.301310971
     0.767099842  0.878953798  0.471106269

  ion indices of the primitive-cell ions
   primitive index   ion index
                 1           1
                 2           2
                 3           3
                 4           4
                 5           5
                 6           6
                 7           7
                 8           8
                 9           9
                10          10
                11          11
                12          12
                13          13
                14          14
                15          15
                16          16
                17          17
                18          18
                19          19
                20          20
                21          21
                22          22
                23          23
                24          24
                25          25
                26          26
                27          27
                28          28
                29          29
                30          30
                31          31
                32          32
                33          33
                34          34
                35          35
                36          36
                37          37
                38          38
                39          39
                40          40
                41          41
                42          42
                43          43
                44          44
                45          45
                46          46
                47          47
                48          48
                49          49
                50          50
                51          51
                52          52
                53          53
                54          54
                55          55
                56          56
                57          57
                58          58
                59          59
                60          60
                61          61
                62          62
                63          63
                64          64
                65          65
                66          66
                67          67
                68          68
                69          69
                70          70
                71          71
                72          72
                73          73
                74          74
                75          75
                76          76
                77          77
                78          78
                79          79
                80          80
                81          81
                82          82
                83          83
                84          84
                85          85
                86          86
                87          87
                88          88
                89          89
                90          90
                91          91
                92          92
                93          93
                94          94
                95          95
                96          96
                97          97
                98          98
                99          99
               100         100
               101         101
               102         102
               103         103

----------------------------------------------------------------------------------------

 
 
 KPOINTS: Automatic generation                    

Automatic generation of k-mesh.
 Grid dimensions derived from RKLEN:
 generate k-points for:    1    1    1

 Generating k-lattice:

  Cartesian coordinates                     Fractional coordinates (reciprocal lattice)
     0.064381598  0.037170733  0.000000000     1.000000000  0.000000000  0.000000000
     0.000000000  0.074341466  0.000000000     0.000000000  1.000000000  0.000000000
     0.000000000  0.000000000  0.044087880     0.000000000  0.000000000  1.000000000

  Length of vectors
     0.074341466  0.074341466  0.044087880

  Shift w.r.t. Gamma in fractional coordinates (k-lattice)
     0.000000000  0.000000000  0.000000000

 
 Subroutine IBZKPT returns following result:
 ===========================================
 
 Found      1 irreducible k-points:
 
 Following reciprocal coordinates:
            Coordinates               Weight
  0.000000  0.000000  0.000000      1.000000
 
 Following cartesian coordinates:
            Coordinates               Weight
  0.000000  0.000000  0.000000      1.000000
 


--------------------------------------------------------------------------------------------------------




 Dimension of arrays:
   k-points           NKPTS =      1   k-points in BZ     NKDIM =      1   number of bands    NBANDS=    564
   number of dos      NEDOS =    301   number of ions     NIONS =    103
   non local maximal  LDIM  =      8   non local SUM 2l+1 LMDIM =     32
   total plane-waves  NPLWV = 846720
   max r-space proj   IRMAX =   3404   max aug-charges    IRDMAX=   9616
   dimension x,y,z NGX =    84 NGY =   84 NGZ =  120
   dimension x,y,z NGXF=   168 NGYF=  168 NGZF=  240
   support grid    NGXF=   168 NGYF=  168 NGZF=  240
   ions per type =              32   4   2  65
   NGX,Y,Z   is equivalent  to a cutoff of   8.99,  8.99,  8.80 a.u.
   NGXF,Y,Z  is equivalent  to a cutoff of  17.98, 17.98, 17.59 a.u.

 SYSTEM =  unknown system                          
 POSCAR =     Ce   Rh   N    O                     

 Startparameter for this run:
   NWRITE =      2    write-flag & timer
   PREC   = normal    normal or accurate (medium, high low for compatibility)
   ISTART =      0    job   : 0-new  1-cont  2-samecut
   ICHARG =      2    charge: 1-file 2-atom 10-const
   ISPIN  =      2    spin polarized calculation?
   LNONCOLLINEAR =      F non collinear calculations
   LSORBIT =      F    spin-orbit coupling
   INIWAV =      1    electr: 0-lowe 1-rand  2-diag
   LASPH  =      F    aspherical Exc in radial PAW
 Electronic Relaxation 1
   ENCUT  =  450.0 eV  33.07 Ry    5.75 a.u.  26.87 26.87 39.23*2*pi/ulx,y,z
   ENINI  =  450.0     initial cutoff
   ENAUG  =  627.1 eV  augmentation charge cutoff
   NELM   =    500;   NELMIN=  2; NELMDL=  0     # of ELM steps 
   EDIFF  = 0.1E-04   stopping-criterion for ELM
   LREAL  =      T    real-space projection
   NLSPLINE    = F    spline interpolate recip. space projectors
   LCOMPAT=      F    compatible to vasp.4.4
   GGA_COMPAT  = T    GGA compatible to vasp.4.4-vasp.4.6
   LMAXPAW     = -100 max onsite density
   LMAXMIX     =    6 max onsite mixed and CHGCAR
   VOSKOWN=      0    Vosko Wilk Nusair interpolation
   ROPT   =   -0.00050  -0.00050  -0.00050  -0.00050
 Ionic relaxation
   EDIFFG = -.5E-01   stopping-criterion for IOM
   NSW    =      0    number of steps for IOM
   NBLOCK =      1;   KBLOCK =      1    inner block; outer block 
   IBRION =     -1    ionic relax: 0-MD 1-quasi-New 2-CG
   NFREE  =      1    steps in history (QN), initial steepest desc. (CG)
   ISIF   =      0    stress and relaxation
   IWAVPR =     10    prediction:  0-non 1-charg 2-wave 3-comb
   ISYM   =      2    0-nonsym 1-usesym 2-fastsym
   LCORR  =      T    Harris-Foulkes like correction to forces

   POTIM  = 0.5000    time-step for ionic-motion
   TEIN   =    0.0    initial temperature
   TEBEG  =    0.0;   TEEND  =   0.0 temperature during run
   SMASS  =  -3.00    Nose mass-parameter (am)
   estimated Nose-frequenzy (Omega)   =  0.10E-29 period in steps = 0.13E+47 mass=  -0.551E-26a.u.
   SCALEE = 1.0000    scale energy and forces
   NPACO  =    256;   APACO  = 10.0  distance and # of slots for P.C.
   PSTRESS=    0.0 pullay stress

  Mass of Ions in am
   POMASS = 140.12102.91 14.00 16.00
  Ionic Valenz
   ZVAL   =  12.00 15.00  5.00  6.00
  Atomic Wigner-Seitz radii
   RWIGS  =  -1.00 -1.00 -1.00 -1.00
  virtual crystal weights 
   VCA    =   1.00  1.00  1.00  1.00
   NELECT =     844.0000    total number of electrons
   NUPDOWN=      -1.0000    fix difference up-down

 DOS related values:
   EMIN   =  10.00;   EMAX   =-10.00  energy-range for DOS
   EFERMI =   0.00;   METHOD = LEGACY      
   ISMEAR =     0;   SIGMA  =   0.05  broadening in eV -4-tet -1-fermi 0-gaus

 Electronic relaxation 2 (details)
   IALGO  =     38    algorithm
   LDIAG  =      T    sub-space diagonalisation (order eigenvalues)
   LSUBROT=      F    optimize rotation matrix (better conditioning)
   TURBO    =      0    0=normal 1=particle mesh
   IRESTART =      0    0=no restart 2=restart with 2 vectors
   NREBOOT  =      0    no. of reboots
   NMIN     =      0    reboot dimension
   EREF     =   0.00    reference energy to select bands
   IMIX   =      4    mixing-type and parameters
     AMIX     =   0.40;   BMIX     =  1.00
     AMIX_MAG =   1.60;   BMIX_MAG =  1.00
     AMIN     =   0.10
     WC   =   100.;   INIMIX=   1;  MIXPRE=   1;  MAXMIX= -45

 Intra band minimization:
   WEIMIN = 0.0000     energy-eigenvalue tresh-hold
   EBREAK =  0.44E-08  absolut break condition
   DEPER  =   0.30     relativ break condition  

   TIME   =   0.40     timestep for ELM

  volume/ion in A,a.u.               =      46.01       310.49
  Fermi-wavevector in a.u.,A,eV,Ry     =   0.921071  1.740571 11.542794  0.848371
  Thomas-Fermi vector in A             =   2.046447
 
 Write flags
   LWAVE        =      F    write WAVECAR
   LDOWNSAMPLE  =      F    k-point downsampling of WAVECAR
   LCHARG       =      F    write CHGCAR
   LVTOT        =      F    write LOCPOT, total local potential
   LVHAR        =      F    write LOCPOT, Hartree potential only
   WRT_POTENTIAL= false  ! write potential to hdf5 file
   LELF         =      F    write electronic localiz. function (ELF)
   LORBIT       =      0    0 simple, 1 ext, 2 COOP (PROOUT), +10 PAW based schemes


 Dipole corrections
   LMONO      =      F    monopole corrections only (constant potential shift)
   LDIPOL     =      F    correct potential (dipole corrections)
   IDIPOL     =      0    1-x, 2-y, 3-z, 4-all directions 
   EPSILON    =  1.0000000 bulk dielectric constant
   LVACPOTAV  =      F  vacuum potentials using an averaging scheme for the charge density
   VACPOTFLAT =  0.1000000 required flatness to determine vacuum potential
 LDA+U is selected, type is set to LDAUTYPE =  2
   angular momentum for each species LDAUL =     3   -1   -1   -1
   U (eV)           for each species LDAUU =   7.0  0.0  0.0  0.0
   J (eV)           for each species LDAUJ =   0.7  0.0  0.0  0.0
 Exchange correlation treatment:
   GGA     = PE    functional components
   XC_C    = 1    coefficients multiplying the functional components
   LIBXC   =     F    Libxc                    
   VOSKOWN =     0    Vosko Wilk Nusair interpolation
   LHFCALC =     F    Hartree Fock is set to
   LHFONE  =     F    Hartree Fock one center treatment
   AEXX    =    0.0000 exact exchange contribution

 Parameters of functionals:
   PE:
     No parameter
 
 Van der Waals corrections
   IVDW    =     0    specifies the selected vdW correction

 Linear response parameters
   LEPSILON=     F    determine dielectric tensor
   LRPA    =     F    only Hartree local field effects (RPA)
   LNABLA  =     F    use nabla operator in PAW spheres
   LVEL    =     F    velocity operator in full k-point grid
   CSHIFT  =0.1000    complex shift for real part using Kramers Kronig
   OMEGAMAX=  -1.0    maximum frequency
   DEG_THRESHOLD= 0.2000000E-02 threshold for treating states as degnerate
   RTIME   =   -0.100 relaxation time in fs
  (WPLASMAI=    0.000 imaginary part of plasma frequency in eV, 0.658/RTIME)
   DFIELD  = 0.0000000 0.0000000 0.0000000 field for delta impulse in time
 
  Optional k-point grid parameters
   LKPOINTS_OPT  =     F    use optional k-point grid
   KPOINTS_OPT_MODE=     1    mode for optional k-point grid
 
 Orbital magnetization related:
   ORBITALMAG=     F  switch on orbital magnetization
   LCHIMAG   =     F  perturbation theory with respect to B field
   DQ        =  0.001000  dq finite difference perturbation B field
   LLRAUG    =     F  two centre corrections for induced B field
   LBONE     =     F  B-component reconstruction in AE one-centre
   LVGVCALC  =     T  calculate vGv susceptibility
   LVGVAPPL  =     F  apply vGv susceptibility instead of pGv for G=0

 Random number generation:
   RANDOM_GENERATOR = DEFAULT
   PCG_SEED         = not used


--------------------------------------------------------------------------------------------------------


 Static calculation
 charge density and potential will be updated during run
 spin polarized calculation
 Variant of blocked Davidson
 Davidson routine will perform the subspace rotation
 perform sub-space diagonalisation
    after iterative eigenvector-optimisation
 modified Broyden-mixing scheme, WC =      100.0
 initial mixing is a Kerker type mixing with AMIX =  0.4000 and BMIX =      1.0000
 Hartree-type preconditioning will be used
 using additional bands          142
 real space projection scheme for non local part
 use partial core corrections
 calculate Harris-corrections to forces 
   (improved forces if not selfconsistent)
 use gradient corrections 
 use of overlap-Matrix (Vanderbilt PP)
 Gauss-broadening in eV      SIGMA  =   0.05


--------------------------------------------------------------------------------------------------------


  energy-cutoff  :      450.00
  volume of cell :     4739.01
      direct lattice vectors                 reciprocal lattice vectors
    15.532388687  0.000000000  0.000000000     0.064381598  0.037170733  0.000000000
    -7.766194344 13.451443185  0.000000000     0.000000000  0.074341466  0.000000000
     0.000000000  0.000000000 22.681970596     0.000000000  0.000000000  0.044087880

  length of vectors
    15.532388687 15.532388687 22.681970596     0.074341466  0.074341466  0.044087880


 
 k-points in units of 2pi/SCALE and weight: Automatic generation                    
   0.00000000  0.00000000  0.00000000       1.000
 
 k-points in reciprocal lattice and weights: Automatic generation                    
   0.00000000  0.00000000  0.00000000       1.000
 
 position of ions in fractional coordinates (direct lattice) 
   0.08333300  0.16666700  0.10483700
   0.33333299  0.16666700  0.10483700
   0.58333302  0.16666700  0.10483700
   0.83333302  0.16666700  0.10483700
   0.08333300  0.41666701  0.10483700
   0.33333299  0.41666701  0.10483700
   0.58333302  0.41666701  0.10483700
   0.83333302  0.41666701  0.10483700
   0.08333300  0.66666698  0.10483700
   0.33333299  0.66666698  0.10483700
   0.58333302  0.66666698  0.10483700
   0.83333302  0.66666698  0.10483700
   0.08333300  0.91666698  0.10483700
   0.33333299  0.91666698  0.10483700
   0.58333302  0.91666698  0.10483700
   0.83333302  0.91666698  0.10483700
   0.16639465  0.08364914  0.24358429
   0.41562680  0.08313425  0.24376565
   0.66676848  0.08521849  0.24293670
   0.91955632  0.08554111  0.24305702
   0.16533940  0.33286462  0.24277559
   0.41188603  0.32361362  0.24275191
   0.66781086  0.33274931  0.24325164
   0.91661478  0.33295762  0.24230388
   0.16422437  0.58145416  0.24295378
   0.40899845  0.58045759  0.24469280
   0.67152293  0.57907227  0.24495691
   0.91817865  0.58235637  0.24325235
   0.16577984  0.83228243  0.24393081
   0.41025745  0.83716101  0.24272037
   0.67023164  0.84219498  0.24094706
   0.92594479  0.83666651  0.24622848
   0.53607246  0.58120832  0.35938853
   0.53482235  0.74166522  0.37374652
   0.69261817  0.74259394  0.37182296
   0.57497941  0.66530303  0.45932230
   0.59652454  0.80307246  0.45190616
   0.69086703  0.81760873  0.44522363
   0.25000000  0.25000000  0.06989100
   0.75000000  0.25000000  0.06989100
   0.25000000  0.75000000  0.06989100
   0.75000000  0.75000000  0.06989100
   0.00000000  0.00000000  0.06989100
   0.25000000  0.00000000  0.06989100
   0.50000000  0.00000000  0.06989100
   0.75000000  0.00000000  0.06989100
   0.00000000  0.25000000  0.06989100
   0.50000000  0.25000000  0.06989100
   0.00000000  0.50000000  0.06989100
   0.25000000  0.50000000  0.06989100
   0.50000000  0.50000000  0.06989100
   0.75000000  0.50000000  0.06989100
   0.00000000  0.75000000  0.06989100
   0.50000000  0.75000000  0.06989100
   0.16666700  0.08333300  0.13978200
   0.66666698  0.08333300  0.13978200
   0.16666700  0.33333299  0.13978200
   0.41666701  0.33333299  0.13978200
   0.66666698  0.33333299  0.13978200
   0.91666698  0.33333299  0.13978200
   0.16666700  0.58333302  0.13978200
   0.66666698  0.58333302  0.13978200
   0.16666700  0.83333302  0.13978200
   0.41666701  0.83333302  0.13978200
   0.66666698  0.83333302  0.13978200
   0.91666597  0.83333302  0.13978200
   0.41666701  0.08333300  0.13978200
   0.91666698  0.08333300  0.13978200
   0.41666701  0.58333302  0.13978200
   0.91666698  0.58333302  0.13978200
   0.08116908  0.41509990  0.20590636
   0.57820825  0.41273457  0.20902540
   0.08929248  0.91973506  0.20766255
   0.58041778  0.91250123  0.20816174
   0.08419375  0.16893636  0.20604535
   0.33284535  0.16563395  0.20660417
   0.58349857  0.16636887  0.20711843
   0.83296734  0.16645754  0.20702430
   0.33513839  0.41376137  0.20904977
   0.83404709  0.41437264  0.20618898
   0.08453974  0.66510795  0.20634844
   0.33513945  0.67187732  0.20906503
   0.58806858  0.67692148  0.21385823
   0.83503778  0.66531831  0.20944051
   0.33265912  0.91722830  0.20671361
   0.82897201  0.91535374  0.20905557
   0.00659131  0.01304420  0.27967436
   0.25323305  0.00201007  0.27935488
   0.49838124  0.99989352  0.27790043
   0.74779959  0.00126286  0.27851063
   0.99987624  0.24959352  0.27769293
   0.49645756  0.24542367  0.27894902
   0.00040652  0.49835385  0.27790474
   0.23727395  0.49398494  0.27910770
   0.49072725  0.48106675  0.30317024
   0.75457471  0.49041144  0.28025504
   0.00922984  0.74562027  0.28097426
   0.49599694  0.76486534  0.29921164
   0.24964463  0.24706487  0.27863484
   0.74882582  0.24764394  0.27816827
   0.25057085  0.75283297  0.27931199
   0.75962583  0.75929564  0.30131097
   0.76709984  0.87895380  0.47110627
 
 position of ions in cartesian coordinates  (Angst):
  -0.00000774  2.24191167  2.37790975
   3.88308920  2.24191167  2.37790975
   7.76618682  2.24191167  2.37790975
  11.64928399  2.24191167  2.37790975
  -1.94155645  5.60477267  2.37790975
   1.94154049  5.60477267  2.37790975
   5.82463812  5.60477267  2.37790975
   9.70773529  5.60477267  2.37790975
  -3.88310481  8.96763307  2.37790975
  -0.00000787  8.96763307  2.37790975
   3.88308976  8.96763307  2.37790975
   7.76618693  8.96763307  2.37790975
  -5.82465339 12.33049387  2.37790975
  -1.94155645 12.33049387  2.37790975
   1.94154117 12.33049387  2.37790975
   5.82463834 12.33049387  2.37790975
   1.93487085  1.12520165  5.52497163
   5.81004020  1.11827562  5.52908540
   9.69468382  1.14631166  5.51028309
  13.61857734  1.15065133  5.51301225
  -0.01697550  4.47750950  5.50662883
   3.88432764  4.35307025  5.50609177
   7.78850201  4.47595842  5.51742648
  11.65140342  4.47876049  5.49592953
  -1.96488934  7.82139766  5.51067056
   1.84477637  7.80799229  5.55011495
   5.93316740  7.78935771  5.55610554
   9.73881484  7.83353368  5.51744266
  -3.88871015 11.19539980  5.53283151
  -0.12927690 11.26102380  5.50537634
   3.86964838 11.32873797  5.46515409
   7.88441965 11.25437203  5.58494723
   3.81270908  7.81809064  8.15164002
   2.54715242  9.97646757  8.47730760
   4.99088577  9.98896024  8.43367756
   3.76393114  8.94928585 10.41833483
   3.02863426 10.80248357 10.25012224
   4.38110693 10.99801741 10.09854923
   1.94154859  3.36286080  1.58526556
   9.70774293  3.36286080  1.58526556
  -1.94154859 10.08858239  1.58526556
   5.82464576 10.08858239  1.58526556
   0.00000000  0.00000000  1.58526556
   3.88309717  0.00000000  1.58526556
   7.76619434  0.00000000  1.58526556
  11.64929152  0.00000000  1.58526556
  -1.94154859  3.36286080  1.58526556
   5.82464576  3.36286080  1.58526556
  -3.88309717  6.72572159  1.58526556
  -0.00000000  6.72572159  1.58526556
   3.88309717  6.72572159  1.58526556
   7.76619434  6.72572159  1.58526556
  -5.82464576 10.08858239  1.58526556
   1.94154859 10.08858239  1.58526556
   1.94155633  1.12094913  3.17053115
   9.70775045  1.12094913  3.17053115
   0.00000786  4.48380972  3.17053115
   3.88310526  4.48380972  3.17053115
   7.76620199  4.48380972  3.17053115
  11.64929916  4.48380972  3.17053115
  -1.94154095  7.84667091  3.17053115
   5.82465317  7.84667091  3.17053115
  -3.88308954 11.20953171  3.17053115
   0.00000787 11.20953171  3.17053115
   3.88310459 11.20953171  3.17053115
   7.76618601 11.20953171  3.17053115
   5.82465373  1.12094913  3.17053115
  13.59084763  1.12094913  3.17053115
   1.94155645  7.84667091  3.17053115
   9.70775035  7.84667091  3.17053115
  -1.96299673  5.58369272  4.67036192
   5.77557833  5.55187566  4.74110798
  -5.75591580 12.37176397  4.71019586
   1.92861258 12.27445847  4.72151847
  -0.00426257  2.27243791  4.67351448
   3.88353791  2.22801570  4.68618967
   7.77107362  2.23790146  4.69785417
  11.64523094  2.23909413  4.69571908
   1.99214851  5.56568751  4.74166084
   9.73664514  5.57390997  4.67677236
  -3.85225347  8.94666186  4.68038928
  -0.01241361  9.03771958  4.74200695
   3.87700607  9.10557077  4.85072619
   7.80314004  8.94949149  4.75052357
  -1.95638248 12.33804436  4.68867206
   5.76710038 12.31282889  4.74179239
   0.00107500  0.17546330  6.34356570
   3.91770363  0.02703830  6.33631917
  -0.02431620 13.45001088  6.30332936
  11.60530620  0.01698734  6.31717003
  13.59207462  3.35739299  6.29862296
   5.80516389  3.30130254  6.32711341
  -3.86399863  6.70357844  6.30342715
  -0.15095186  6.64481035  6.33071260
   3.88610854  6.47104207  6.87649841
   7.91171721  6.59674157  6.35673660
  -5.64727040 10.02966872  6.37304989
   1.76392444 10.28854264  6.78670965
   1.95882364  3.32337904  6.31998729
   9.70780279  3.33116835  6.30940457
  -1.95468339 10.12668993  6.33534626
   5.90196622 10.21362212  6.83432659
   5.08876689 11.82319707 10.68561854
 


--------------------------------------------------------------------------------------------------------


 k-point     1 :   0.0000 0.0000 0.0000  plane waves:  102703

 maximum and minimum number of plane-waves per node :     10276    10266

 maximum number of plane-waves:    102703
 maximum index in each direction: 
   IXMAX=   26   IYMAX=   26   IZMAX=   39
   IXMIN=  -26   IYMIN=  -26   IZMIN=  -39


 real space projection operators:
  total allocation   :      32740.61 KBytes
  max/ min on nodes  :       3624.47       3018.62


 parallel 3D FFT for wavefunctions:
    minimum data exchange during FFTs selected (reduces bandwidth)
 parallel 3D FFT for charge:
    minimum data exchange during FFTs selected (reduces bandwidth)


 total amount of memory used by VASP MPI-rank0    77424. kBytes
=======================================================================

   base      :      30000. kBytes
   nonlr-proj:      10216. kBytes
   fftplans  :       5314. kBytes
   grid      :      15076. kBytes
   one-center:       1081. kBytes
   wavefun   :      15737. kBytes
 
     INWAV:  cpu time      0.0001: real time      0.0004
 Broyden mixing: mesh for mixing (old mesh)
   NGX = 53   NGY = 53   NGZ = 79
  (NGX  =168   NGY  =168   NGZ  =240)
  gives a total of 221911 points

 initial charge density was supplied:
 charge density of overlapping atoms calculated
 number of electron     844.0000000 magnetization     103.0000000
 keeping initial charge density in first step


--------------------------------------------------------------------------------------------------------


 Maximum index for non-local projection operator          475
 Maximum index for augmentation-charges          409 (set IRDMAX)


--------------------------------------------------------------------------------------------------------


 First call to EWALD:  gamma=   0.106
 Maximum number of real-space cells 3x 3x 2
 Maximum number of reciprocal cells 3x 3x 4

    FEWALD:  cpu time      0.0048: real time      0.0049


--------------------------------------- Ionic step        1  -------------------------------------------




--------------------------------------- Iteration      1(   1)  ---------------------------------------


    POTLOK:  cpu time      0.1053: real time      0.1087
    SETDIJ:  cpu time      0.0165: real time      0.0172
     EDDAV:  cpu time      3.8435: real time      3.8698
       DOS:  cpu time      0.0047: real time      0.0055
    --------------------------------------------
      LOOP:  cpu time      3.9699: real time      4.0012

 eigenvalue-minimisations  :  2304
 total energy-change (2. order) : 0.1334613E+05  (-0.3029455E+05)
 number of electron     844.0000000 magnetization     103.0000000
 augmentation part      844.0000000 magnetization     103.0000000

 Free energy of the ion-electron system (eV)
  ---------------------------------------------------
  alpha Z        PSCENC =      1367.00335504
  Ewald energy   TEWEN  =    215851.02765727
  -Hartree energ DENC   =   -278377.05743155
  -exchange      EXHF   =         0.00000000
  -V(xc)+E(xc)   XCENC  =      2251.96900013
  PAW double counting   =     57643.40774443   -56972.79012806
  entropy T*S    EENTRO =        -0.04468818
  eigenvalues    EBANDS =        27.71473864
  atomic energy  EATOM  =     71554.89795037
  Solvation  Ediel_sol  =         0.00000000
  ---------------------------------------------------
  free energy    TOTEN  =     13346.12819810 eV

  energy without entropy =    13346.17288628  energy(sigma->0) =    13346.15054219


--------------------------------------------------------------------------------------------------------




--------------------------------------- Iteration      1(   2)  ---------------------------------------


     EDDAV:  cpu time      4.2745: real time      4.3093
       DOS:  cpu time      0.0011: real time      0.0011
    --------------------------------------------
      LOOP:  cpu time      4.2756: real time      4.3104

 eigenvalue-minimisations  :  2736
 total energy-change (2. order) :-0.8936444E+04  (-0.7798007E+04)
 number of electron     844.0000000 magnetization     103.0000000
 augmentation part      844.0000000 magnetization     103.0000000

 Free energy of the ion-electron system (eV)
  ---------------------------------------------------
  alpha Z        PSCENC =      1367.00335504
  Ewald energy   TEWEN  =    215851.02765727
  -Hartree energ DENC   =   -278377.05743155
  -exchange      EXHF   =         0.00000000
  -V(xc)+E(xc)   XCENC  =      2251.96900013
  PAW double counting   =     57643.40774443   -56972.79012806
  entropy T*S    EENTRO =        -0.24196097
  eigenvalues    EBANDS =     -8908.53175098
  atomic energy  EATOM  =     71554.89795037
  Solvation  Ediel_sol  =         0.00000000
  ---------------------------------------------------
  free energy    TOTEN  =      4409.68443569 eV

  energy without entropy =     4409.92639666  energy(sigma->0) =     4409.80541618


--------------------------------------------------------------------------------------------------------




--------------------------------------- Iteration      1(   3)  ---------------------------------------


     EDDAV:  cpu time      4.6397: real time      4.6731
       DOS:  cpu time      0.0009: real time      0.0009
    --------------------------------------------
      LOOP:  cpu time      4.6406: real time      4.6740

 eigenvalue-minimisations  :  3048
 total energy-change (2. order) :-0.4522350E+04  (-0.4428018E+04)
 number of electron     844.0000000 magnetization     103.0000000
 augmentation part      844.0000000 magnetization     103.0000000

 Free energy of the ion-electron system (eV)
  ---------------------------------------------------
  alpha Z        PSCENC =      1367.00335504
  Ewald energy   TEWEN  =    215851.02765727
  -Hartree energ DENC   =   -278377.05743155
  -exchange      EXHF   =         0.00000000
  -V(xc)+E(xc)   XCENC  =      2251.96900013
  PAW double counting   =     57643.40774443   -56972.79012806
  entropy T*S    EENTRO =        -0.19493569
  eigenvalues    EBANDS =    -13430.92891421
  atomic energy  EATOM  =     71554.89795037
  Solvation  Ediel_sol  =         0.00000000
  ---------------------------------------------------
  free energy    TOTEN  =      -112.66570226 eV

  energy without entropy =     -112.47076657  energy(sigma->0) =     -112.56823441


--------------------------------------------------------------------------------------------------------




--------------------------------------- Iteration      1(   4)  ---------------------------------------


     EDDAV:  cpu time      5.1442: real time      5.1747
       DOS:  cpu time      0.0010: real time      0.0010
    --------------------------------------------
      LOOP:  cpu time      5.1453: real time      5.1757

 eigenvalue-minimisations  :  3468
 total energy-change (2. order) :-0.8256301E+03  (-0.7976291E+03)
 number of electron     844.0000000 magnetization     103.0000000
 augmentation part      844.0000000 magnetization     103.0000000

 Free energy of the ion-electron system (eV)
  ---------------------------------------------------
  alpha Z        PSCENC =      1367.00335504
  Ewald energy   TEWEN  =    215851.02765727
  -Hartree energ DENC   =   -278377.05743155
  -exchange      EXHF   =         0.00000000
  -V(xc)+E(xc)   XCENC  =      2251.96900013
  PAW double counting   =     57643.40774443   -56972.79012806
  entropy T*S    EENTRO =        -0.02225360
  eigenvalues    EBANDS =    -14256.73165003
  atomic energy  EATOM  =     71554.89795037
  Solvation  Ediel_sol  =         0.00000000
  ---------------------------------------------------
  free energy    TOTEN  =      -938.29575599 eV

  energy without entropy =     -938.27350239  energy(sigma->0) =     -938.28462919


--------------------------------------------------------------------------------------------------------




--------------------------------------- Iteration      1(   5)  ---------------------------------------


     EDDAV:  cpu time      5.6082: real time      5.6552
       DOS:  cpu time      0.0021: real time      0.0021
    CHARGE:  cpu time      0.0817: real time      0.0827
    MIXING:  cpu time      0.0132: real time      0.0137
    --------------------------------------------
      LOOP:  cpu time      5.7053: real time      5.7536

 eigenvalue-minimisations  :  3816
 total energy-change (2. order) :-0.5918585E+02  (-0.5838828E+02)
 number of electron     844.0000422 magnetization      91.7756588
 augmentation part       21.4580543 magnetization      89.8666630

 Broyden mixing:
  rms(total) = 0.13874E+02    rms(broyden)= 0.13872E+02
  rms(prec ) = 0.14379E+02
  weight for this iteration     100.00

 Free energy of the ion-electron system (eV)
  ---------------------------------------------------
  alpha Z        PSCENC =      1367.00335504
  Ewald energy   TEWEN  =    215851.02765727
  -Hartree energ DENC   =   -278377.05743155
  -exchange      EXHF   =         0.00000000
  -V(xc)+E(xc)   XCENC  =      2251.96900013
  PAW double counting   =     57643.40774443   -56972.79012806
  entropy T*S    EENTRO =        -0.05858405
  eigenvalues    EBANDS =    -14315.88116498
  atomic energy  EATOM  =     71554.89795037
  Solvation  Ediel_sol  =         0.00000000
  ---------------------------------------------------
  free energy    TOTEN  =      -997.48160139 eV

  energy without entropy =     -997.42301734  energy(sigma->0) =     -997.45230937


--------------------------------------------------------------------------------------------------------




--------------------------------------- Iteration      1(   6)  ---------------------------------------


    POTLOK:  cpu time      0.1089: real time      0.1149
    SETDIJ:  cpu time      0.0102: real time      0.0103
     EDDAV:  cpu time      4.5341: real time      4.5571
       DOS:  cpu time      0.0006: real time      0.0006
    CHARGE:  cpu time      0.0751: real time      0.0756
    MIXING:  cpu time      0.0050: real time      0.0052
    --------------------------------------------
      LOOP:  cpu time      4.7339: real time      4.7635

 eigenvalue-minimisations  :  2976
 total energy-change (2. order) : 0.3304724E+03  (-0.1937850E+03)
 number of electron     844.0000359 magnetization      85.0097657
 augmentation part       39.2685146 magnetization      78.0327205

 Broyden mixing:
  rms(total) = 0.75180E+01    rms(broyden)= 0.75131E+01
  rms(prec ) = 0.80247E+01
  weight for this iteration     100.00

 eigenvalues of (default mixing * dielectric matrix)
  average eigenvalue GAMMA=   0.7242
  0.7242

 Free energy of the ion-electron system (eV)
  ---------------------------------------------------
  alpha Z        PSCENC =      1367.00335504
  Ewald energy   TEWEN  =    215851.02765727
  -Hartree energ DENC   =   -279570.88375670
  -exchange      EXHF   =         0.00000000
  -V(xc)+E(xc)   XCENC  =      2408.19170925
  PAW double counting   =     61390.70528442   -60714.91107682
  entropy T*S    EENTRO =        -0.13751819
  eigenvalues    EBANDS =    -12952.90282375
  atomic energy  EATOM  =     71554.89795037
  Solvation  Ediel_sol  =         0.00000000
  ---------------------------------------------------
  free energy    TOTEN  =      -667.00921911 eV

  energy without entropy =     -666.87170092  energy(sigma->0) =     -666.94046001


--------------------------------------------------------------------------------------------------------




--------------------------------------- Iteration      1(   7)  ---------------------------------------


    POTLOK:  cpu time      0.0927: real time      0.1075
    SETDIJ:  cpu time      0.0102: real time      0.0102
     EDDAV:  cpu time      5.0209: real time      5.0469
       DOS:  cpu time      0.0005: real time      0.0005
    CHARGE:  cpu time      0.0742: real time      0.0746
    MIXING:  cpu time      0.0022: real time      0.0023
    --------------------------------------------
      LOOP:  cpu time      5.2007: real time      5.2420

 eigenvalue-minimisations  :  3432
 total energy-change (2. order) :-0.2279380E+02  (-0.1203859E+03)
 number of electron     844.0000333 magnetization      80.5877987
 augmentation part       14.7449214 magnetization      76.9454318

 Broyden mixing:
  rms(total) = 0.87450E+01    rms(broyden)= 0.87444E+01
  rms(prec ) = 0.88594E+01
  weight for this iteration     100.00

 eigenvalues of (default mixing * dielectric matrix)
  average eigenvalue GAMMA=   0.6184
  0.9367  0.3000

 Free energy of the ion-electron system (eV)
  ---------------------------------------------------
  alpha Z        PSCENC =      1367.00335504
  Ewald energy   TEWEN  =    215851.02765727
  -Hartree energ DENC   =   -279960.71752906
  -exchange      EXHF   =         0.00000000
  -V(xc)+E(xc)   XCENC  =      2390.53628375
  PAW double counting   =     63385.31959393   -62748.08086481
  entropy T*S    EENTRO =        -0.00000127
  eigenvalues    EBANDS =    -12529.78946721
  atomic energy  EATOM  =     71554.89795037
  Solvation  Ediel_sol  =         0.00000000
  ---------------------------------------------------
  free energy    TOTEN  =      -689.80302198 eV

  energy without entropy =     -689.80302071  energy(sigma->0) =     -689.80302135


--------------------------------------------------------------------------------------------------------




--------------------------------------- Iteration      1(   8)  ---------------------------------------


    POTLOK:  cpu time      0.0936: real time      0.1072
    SETDIJ:  cpu time      0.0104: real time      0.0104
     EDDAV:  cpu time      5.6094: real time      5.6374
       DOS:  cpu time      0.0021: real time      0.0021
    CHARGE:  cpu time      0.0727: real time      0.0731
    MIXING:  cpu time      0.0022: real time      0.0022
    --------------------------------------------
      LOOP:  cpu time      5.7903: real time      5.8324

 eigenvalue-minimisations  :  3864
 total energy-change (2. order) :-0.1680697E+02  (-0.2638356E+02)
 number of electron     844.0000319 magnetization      70.5510944
 augmentation part       13.4860218 magnetization      66.8412022

 Broyden mixing:
  rms(total) = 0.58238E+01    rms(broyden)= 0.58234E+01
  rms(prec ) = 0.60518E+01
  weight for this iteration     100.00

 eigenvalues of (default mixing * dielectric matrix)
  average eigenvalue GAMMA=   0.7402
  1.3557  0.4324  0.4324

 Free energy of the ion-electron system (eV)
  ---------------------------------------------------
  alpha Z        PSCENC =      1367.00335504
  Ewald energy   TEWEN  =    215851.02765727
  -Hartree energ DENC   =   -280101.87815038
  -exchange      EXHF   =         0.00000000
  -V(xc)+E(xc)   XCENC  =      2388.92449645
  PAW double counting   =     64395.97011479   -63752.17774565
  entropy T*S    EENTRO =        -0.01085442
  eigenvalues    EBANDS =    -12410.36681583
  atomic energy  EATOM  =     71554.89795037
  Solvation  Ediel_sol  =         0.00000000
  ---------------------------------------------------
  free energy    TOTEN  =      -706.60999235 eV

  energy without entropy =     -706.59913793  energy(sigma->0) =     -706.60456514


--------------------------------------------------------------------------------------------------------




--------------------------------------- Iteration      1(   9)  ---------------------------------------


    POTLOK:  cpu time      0.0920: real time      0.1147
    SETDIJ:  cpu time      0.0105: real time      0.0106
     EDDAV:  cpu time      5.7074: real time      5.7371
       DOS:  cpu time      0.0004: real time      0.0004
    CHARGE:  cpu time      0.0743: real time      0.0747
    MIXING:  cpu time      0.0022: real time      0.0022
    --------------------------------------------
      LOOP:  cpu time      5.8868: real time      5.9398

 eigenvalue-minimisations  :  3984
 total energy-change (2. order) : 0.3873411E+02  (-0.1549364E+02)
 number of electron     844.0000309 magnetization      69.1704514
 augmentation part       16.9394296 magnetization      63.0381106

 Broyden mixing:
  rms(total) = 0.69241E+01    rms(broyden)= 0.69237E+01
  rms(prec ) = 0.75043E+01
  weight for this iteration     100.00

 eigenvalues of (default mixing * dielectric matrix)
  average eigenvalue GAMMA=   0.6045
  1.3719  0.4385  0.4385  0.1692

 Free energy of the ion-electron system (eV)
  ---------------------------------------------------
  alpha Z        PSCENC =      1367.00335504
[...]
   -.124E+03 -.306E+03 -.933E+03   0.126E+03 0.298E+03 0.920E+03   -.171E+01 0.891E+01 0.128E+02   -.105E-02 -.223E-01 -.211E-01
   0.968E+00 0.485E+01 0.114E+04   -.994E+00 -.490E+01 -.114E+04   0.515E-01 0.105E+00 0.748E+01   -.131E-02 -.208E-02 -.281E-02
   0.337E+00 -.408E+01 0.113E+04   -.333E+00 0.416E+01 -.114E+04   -.106E-01 -.145E+00 0.752E+01   0.161E-02 -.271E-02 -.229E-02
   0.931E+01 0.362E+00 0.114E+04   -.942E+01 -.372E+00 -.115E+04   0.199E+00 0.148E-01 0.748E+01   0.981E-03 0.801E-03 -.165E-02
   -.124E+02 0.754E+00 0.115E+04   0.125E+02 -.789E+00 -.116E+04   -.346E+00 0.455E-01 0.740E+01   -.291E-02 0.533E-02 -.922E-02
   -.716E+01 -.249E+01 0.113E+04   0.724E+01 0.244E+01 -.114E+04   -.154E+00 0.749E-01 0.745E+01   -.660E-03 0.300E-02 -.346E-02
   0.202E+01 -.179E-01 0.113E+04   -.208E+01 -.161E-01 -.114E+04   0.108E+00 0.592E-01 0.743E+01   0.173E-02 0.743E-03 -.202E-02
   0.716E+01 -.769E+01 0.114E+04   -.724E+01 0.772E+01 -.115E+04   0.153E+00 -.525E-01 0.753E+01   0.428E-03 -.705E-03 -.837E-03
   -.203E+01 -.125E+02 0.115E+04   0.209E+01 0.125E+02 -.116E+04   -.108E+00 -.104E+00 0.756E+01   -.147E-02 0.122E-02 -.124E-02
   0.531E+00 -.242E+01 0.113E+04   -.498E+00 0.245E+01 -.114E+04   -.685E-01 -.613E-01 0.752E+01   -.240E-03 -.619E-03 -.162E-02
   -.183E+01 0.335E+01 0.114E+04   0.182E+01 -.336E+01 -.114E+04   0.294E-01 0.217E-01 0.749E+01   -.149E-03 -.464E-02 -.426E-02
   0.178E+01 0.771E+00 0.113E+04   -.181E+01 -.749E+00 -.114E+04   0.341E-01 -.402E-01 0.750E+01   0.243E-02 -.653E-03 -.308E-02
   0.679E+01 0.581E+01 0.114E+04   -.681E+01 -.584E+01 -.115E+04   0.570E-01 0.574E-01 0.751E+01   -.192E-02 0.430E-03 -.377E-02
   -.170E+01 0.845E+01 0.115E+04   0.172E+01 -.846E+01 -.115E+04   -.292E-01 0.479E-01 0.743E+01   -.468E-02 -.131E-02 -.105E-01
   -.686E+01 0.388E+01 0.114E+04   0.688E+01 -.382E+01 -.114E+04   -.552E-01 -.899E-01 0.747E+01   0.414E-02 -.324E-02 -.109E-01
   -.409E+01 -.101E+01 0.113E+04   0.406E+01 0.104E+01 -.114E+04   0.415E-01 -.668E-01 0.741E+01   0.398E-02 0.143E-02 -.607E-02
   0.708E+01 0.200E+01 0.116E+04   -.712E+01 -.208E+01 -.116E+04   0.101E+00 0.132E+00 0.747E+01   -.246E-02 0.271E-02 -.266E-02
   -.200E+01 0.346E+01 0.432E+03   0.207E+01 -.359E+01 -.434E+03   -.115E+00 0.225E+00 0.137E+01   0.488E-03 0.209E-02 -.363E-03
   0.715E+01 -.190E+02 0.446E+03   -.710E+01 0.190E+02 -.448E+03   -.463E-01 -.248E+00 0.192E+01   0.241E-03 -.173E-02 0.207E-02
   0.393E+01 0.434E+01 0.440E+03   -.393E+01 -.447E+01 -.442E+03   0.998E-01 0.315E+00 0.179E+01   -.267E-02 -.254E-02 0.142E-03
   -.120E+01 0.981E+01 0.453E+03   0.120E+01 -.912E+01 -.454E+03   -.141E-01 -.864E+00 0.154E+01   -.424E-02 -.845E-02 -.384E-02
   -.430E+01 0.391E+01 0.435E+03   0.427E+01 -.391E+01 -.437E+03   -.414E-01 0.570E-01 0.167E+01   0.496E-02 -.935E-02 -.408E-02
   0.149E+01 -.184E+01 0.434E+03   -.152E+01 0.199E+01 -.436E+03   0.469E-01 -.278E+00 0.178E+01   0.211E-02 -.231E-02 0.727E-03
   0.104E+02 0.464E+01 0.441E+03   -.105E+02 -.450E+01 -.442E+03   0.360E+00 -.187E+00 0.173E+01   0.910E-04 0.588E-03 -.138E-03
   -.116E+02 0.116E+02 0.466E+03   0.114E+02 -.113E+02 -.466E+03   -.349E-02 -.258E+00 0.656E-01   -.324E-02 0.186E-02 -.451E-01
   0.671E+01 -.127E+01 0.431E+03   -.677E+01 0.140E+01 -.432E+03   0.111E+00 -.222E+00 0.121E+01   0.488E-02 0.146E-02 -.576E-03
   0.190E+02 -.633E+01 0.466E+03   -.184E+02 0.596E+01 -.467E+03   -.671E+00 0.516E+00 0.158E+01   0.121E-03 0.195E-02 0.214E-02
   -.715E+01 -.644E+01 0.509E+03   0.733E+01 0.569E+01 -.511E+03   -.271E+00 0.930E+00 0.207E+01   -.603E-02 0.700E-02 0.878E-03
   -.193E+02 -.535E+01 0.437E+03   0.190E+02 0.504E+01 -.436E+03   0.383E+00 0.445E+00 -.440E+00   0.116E-02 0.818E-02 -.934E-02
   0.423E+01 -.301E+01 0.433E+03   -.420E+01 0.301E+01 -.434E+03   -.529E-02 0.751E-02 0.140E+01   0.983E-03 -.247E-02 0.666E-03
   -.938E+01 -.130E+02 0.445E+03   0.927E+01 0.130E+02 -.447E+03   0.128E+00 -.616E-01 0.178E+01   -.156E-02 0.214E-02 0.125E-02
   0.761E+01 0.169E+02 0.471E+03   -.729E+01 -.168E+02 -.471E+03   -.261E+00 -.106E+00 0.120E+00   -.749E-02 0.551E-02 -.123E-01
   -.755E+01 0.119E+01 0.436E+03   0.739E+01 -.108E+01 -.438E+03   0.181E+00 -.161E+00 0.154E+01   0.999E-02 -.162E-02 -.574E-02
   0.161E+02 0.890E+01 -.260E+03   -.158E+02 -.883E+01 0.261E+03   -.219E+00 -.624E-01 -.167E+01   -.555E-03 -.181E-02 0.339E-02
   -.224E+02 0.378E+02 -.231E+03   0.223E+02 -.378E+02 0.232E+03   0.157E+00 0.646E-01 -.812E+00   -.734E-02 -.454E-01 -.937E-02
   -.138E+02 -.597E+01 -.266E+03   0.141E+02 0.618E+01 0.266E+03   -.386E+00 -.251E+00 -.268E+00   0.874E-02 0.775E-02 0.350E-02
   0.574E+02 -.582E+02 -.187E+03   -.597E+02 0.587E+02 0.188E+03   0.234E+01 -.536E+00 -.129E+01   -.377E-03 -.355E-03 0.878E-02
   -.934E+01 -.334E+01 -.255E+03   0.999E+01 0.314E+01 0.256E+03   -.642E+00 0.198E+00 -.149E+01   -.187E-02 0.902E-03 0.332E-02
   0.150E+01 0.332E+02 -.256E+03   -.169E+01 -.354E+02 0.257E+03   0.192E+00 0.218E+01 -.570E+00   -.519E-03 -.325E-02 0.243E-02
   0.109E+02 -.111E+02 -.269E+03   -.117E+02 0.111E+02 0.270E+03   0.803E+00 0.167E-01 -.128E+01   0.211E-02 -.610E-02 0.298E-02
   -.194E+01 -.318E+02 -.264E+03   0.219E+01 0.315E+02 0.265E+03   -.242E+00 0.370E+00 -.148E+01   0.190E-03 -.185E-02 0.411E-02
   0.184E+02 0.403E+02 -.229E+03   -.181E+02 -.402E+02 0.230E+03   -.246E+00 -.493E-01 -.902E+00   -.509E-02 -.131E-01 0.410E-02
   -.119E+02 0.413E+01 -.264E+03   0.116E+02 -.368E+01 0.265E+03   0.315E+00 -.435E+00 -.162E+01   0.906E-02 -.721E-02 0.142E-02
   0.699E+01 -.784E+00 -.261E+03   -.724E+01 0.134E+01 0.262E+03   0.228E+00 -.560E+00 -.144E+01   0.623E-02 0.695E-03 0.235E-02
   0.567E+02 0.162E+02 -.217E+03   -.569E+02 -.162E+02 0.218E+03   0.221E+00 -.155E-01 -.740E+00   -.875E-03 0.575E-02 0.468E-02
   -.112E+02 0.513E+02 -.100E+03   0.115E+02 -.536E+02 0.101E+03   -.236E+00 0.223E+01 -.967E+00   -.318E-01 0.304E-01 0.104E-01
   -.528E+02 -.124E+02 -.229E+03   0.529E+02 0.142E+02 0.229E+03   -.228E+00 -.177E+01 -.328E+00   0.286E-01 0.206E-01 -.980E-02
   0.439E+02 -.219E+02 -.251E+03   -.461E+02 0.229E+02 0.252E+03   0.216E+01 -.109E+01 -.586E+00   0.326E-02 0.180E-03 0.345E-02
   -.831E+02 -.460E+02 -.198E+03   0.867E+02 0.460E+02 0.199E+03   -.354E+01 -.541E-01 -.905E+00   -.878E-02 0.822E-02 0.798E-02
   -.536E+02 -.296E+02 -.984E+03   0.532E+02 0.279E+02 0.992E+03   0.355E+00 0.159E+01 -.790E+01   -.435E-02 0.584E-02 0.106E-01
   0.114E+02 0.289E+01 -.103E+04   -.121E+02 -.341E+01 0.103E+04   0.657E+00 0.525E+00 -.750E+01   0.207E-02 0.400E-03 0.632E-02
   0.517E+02 -.736E+02 -.977E+03   -.508E+02 0.741E+02 0.985E+03   -.830E+00 -.511E+00 -.771E+01   0.346E-02 -.381E-02 0.680E-02
   -.774E+01 -.173E+03 -.907E+03   0.841E+01 0.174E+03 0.915E+03   -.665E+00 -.117E+01 -.804E+01   -.154E-02 -.569E-02 0.119E-01
   0.110E+02 -.232E+02 -.101E+04   -.113E+02 0.236E+02 0.102E+04   0.303E+00 -.412E+00 -.788E+01   -.351E-03 -.142E-02 0.570E-02
   -.328E+02 0.374E+02 -.101E+04   0.340E+02 -.364E+02 0.101E+04   -.119E+01 -.984E+00 -.795E+01   -.732E-03 -.826E-02 0.892E-02
   0.693E+01 0.148E+02 -.102E+04   -.725E+01 -.150E+02 0.103E+04   0.308E+00 0.261E+00 -.794E+01   0.525E-02 -.190E-02 0.656E-02
   0.835E+02 0.586E+02 -.963E+03   -.827E+02 -.583E+02 0.971E+03   -.832E+00 -.326E+00 -.802E+01   -.799E-02 -.522E-02 0.144E-01
   -.176E+02 0.394E+03 -.751E+03   0.182E+02 -.406E+03 0.744E+03   -.591E+00 0.121E+02 0.657E+01   -.253E-01 0.255E-01 0.598E-01
   -.845E+02 0.455E+02 -.976E+03   0.842E+02 -.445E+02 0.984E+03   0.269E+00 -.986E+00 -.807E+01   0.358E-01 -.230E-01 0.279E-01
   -.354E+02 -.159E+01 -.101E+04   0.338E+02 0.108E+01 0.102E+04   0.158E+01 0.513E+00 -.800E+01   0.868E-02 0.233E-02 0.121E-01
   0.307E+03 -.110E+03 -.629E+03   -.313E+03 0.113E+03 0.618E+03   0.629E+01 -.201E+01 0.105E+02   0.145E-01 0.170E-02 0.341E-01
   0.286E+02 0.426E+02 -.100E+04   -.298E+02 -.419E+02 0.101E+04   0.115E+01 -.698E+00 -.799E+01   -.210E-02 -.699E-03 0.833E-02
   -.750E+01 -.281E+02 -.102E+04   0.789E+01 0.289E+02 0.102E+04   -.407E+00 -.731E+00 -.790E+01   0.330E-02 -.554E-02 0.587E-02
   0.796E+02 0.140E+02 -.999E+03   -.800E+02 -.156E+02 0.101E+04   0.427E+00 0.163E+01 -.804E+01   0.484E-02 0.152E-02 0.744E-02
   -.353E+03 -.981E+02 -.618E+03   0.362E+03 0.100E+03 0.606E+03   -.909E+01 -.195E+01 0.117E+02   -.322E-01 0.153E-01 0.648E-01
   -.318E+03 -.465E+03 -.115E+04   0.350E+03 0.503E+03 0.117E+04   -.328E+02 -.377E+02 -.267E+02   -.689E-02 -.166E-01 -.134E-01
 -----------------------------------------------------------------------------------------------
   0.309E+01 0.336E+02 -.406E+02   0.284E-12 0.114E-11 -.157E-10   -.309E+01 -.335E+02 0.400E+02   -.500E-02 -.483E-01 0.457E+00
 
 
 POSITION                                       TOTAL-FORCE (eV/Angst)
 -----------------------------------------------------------------------------------
     -0.00001      2.24191      2.37791         0.070051     -0.014935     -0.420621
      3.88309      2.24191      2.37791        -0.049505     -0.111349     -0.549440
      7.76619      2.24191      2.37791        -0.083253      0.049510     -0.301800
     11.64928      2.24191      2.37791         0.059209      0.097740     -0.316734
     -1.94156      5.60477      2.37791        -0.065814     -0.015316     -0.435357
      1.94154      5.60477      2.37791         0.059826      0.052134     -0.049971
      5.82464      5.60477      2.37791        -0.028588      0.101751     -0.047192
      9.70774      5.60477      2.37791         0.047759      0.060056     -0.358568
     -3.88310      8.96763      2.37791        -0.060263      0.030884     -0.336328
     -0.00001      8.96763      2.37791         0.035747     -0.035610     -0.084086
      3.88309      8.96763      2.37791         0.080061     -0.133885      0.433586
      7.76619      8.96763      2.37791         0.004612      0.160242      0.188396
     -5.82465     12.33049      2.37791        -0.077587     -0.094434     -0.160043
     -1.94156     12.33049      2.37791        -0.204344      0.013287     -0.519595
      1.94154     12.33049      2.37791        -0.128269     -0.033663     -0.369754
      5.82464     12.33049      2.37791         0.376631     -0.125000     -0.095219
      1.93487      1.12520      5.52497         0.014530      0.011064      0.012160
      5.81004      1.11828      5.52909        -0.000114     -0.013060      0.007467
      9.69468      1.14631      5.51028         0.012544     -0.023317      0.013705
     13.61858      1.15065      5.51301        -0.030135      0.003037      0.012304
     -0.01698      4.47751      5.50663        -0.006120     -0.004865      0.010226
      3.88433      4.35307      5.50609        -0.007354      0.014091      0.038668
      7.78850      4.47596      5.51743         0.011245     -0.028105      0.009210
     11.65140      4.47876      5.49593         0.005632     -0.011324      0.006827
     -1.96489      7.82140      5.51067        -0.004277      0.015009      0.000560
      1.84478      7.80799      5.55011        -0.001987      0.008867      0.003380
      5.93317      7.78936      5.55611        -0.005064     -0.011470     -0.015701
      9.73881      7.83353      5.51744         0.040620     -0.008644      0.004333
     -3.88871     11.19540      5.53283         0.025351      0.008807      0.007874
     -0.12928     11.26102      5.50538         0.037705     -0.014485      0.031049
      3.86965     11.32874      5.46515        -0.025757     -0.038063      0.072492
      7.88442     11.25437      5.58495        -0.026722     -0.008521     -0.027820
      3.81271      7.81809      8.15164         0.025821     -0.030734      0.018039
      2.54715      9.97647      8.47731        -0.053635     -0.028849     -0.027711
      4.99089      9.98896      8.43368         0.029661      0.026473      0.033131
      3.76393      8.94929     10.41833        -0.035628     -0.016036      0.025081
      3.02863     10.80248     10.25012         0.000591      0.015216      0.012484
      4.38111     10.99802     10.09855        -0.031609     -0.044772     -0.013532
      1.94155      3.36286      1.58527         0.024151      0.052127      0.002244
      9.70774      3.36286      1.58527        -0.005423     -0.070030      0.019897
     -1.94155     10.08858      1.58527         0.095808      0.005103      0.001331
      5.82465     10.08858      1.58527        -0.160781      0.015395     -0.024601
      0.00000      0.00000      1.58527        -0.074624      0.028670     -0.008653
      3.88310      0.00000      1.58527         0.049882      0.025755     -0.014052
      7.76619      0.00000      1.58527         0.074371     -0.024102      0.020068
     11.64929      0.00000      1.58527        -0.049506     -0.046222      0.027849
     -1.94155      3.36286      1.58527        -0.035304     -0.030839      0.018199
      5.82465      3.36286      1.58527         0.017364      0.012364      0.002535
     -3.88310      6.72572      1.58527         0.014096     -0.018558      0.012599
     -0.00000      6.72572      1.58527         0.029549      0.029473      0.008398
      3.88310      6.72572      1.58527        -0.012756      0.032978     -0.015775
      7.76619      6.72572      1.58527        -0.028413     -0.040237     -0.001578
     -5.82465     10.08858      1.58527         0.014003     -0.031314     -0.019909
      1.94155     10.08858      1.58527         0.051042      0.054543     -0.004889
      1.94156      1.12095      3.17053        -0.045870      0.096094      0.249807
      9.70775      1.12095      3.17053        -0.003517     -0.175460      0.397451
      0.00001      4.48381      3.17053         0.097714      0.178278      0.291379
      3.88311      4.48381      3.17053        -0.011519     -0.180329      0.192013
      7.76620      4.48381      3.17053        -0.073651      0.044201      0.349627
     11.64930      4.48381      3.17053         0.020494     -0.137571      0.159074
     -1.94154      7.84667      3.17053         0.230512     -0.040214      0.302550
      5.82465      7.84667      3.17053        -0.179803     -0.013957      0.016072
     -3.88309     11.20953      3.17053         0.056024     -0.087753      0.247321
      0.00001     11.20953      3.17053        -0.100175      0.154882      0.217115
      3.88310     11.20953      3.17053        -0.097166      0.182601      0.026369
      7.76619     11.20953      3.17053         0.021808      0.135164      0.005262
      5.82465      1.12095      3.17053         0.024321      0.009982      0.302585
     13.59085      1.12095      3.17053         0.016268     -0.095283      0.361437
      1.94156      7.84667      3.17053         0.049481      0.029302     -0.024084
      9.70775      7.84667      3.17053         0.032576     -0.050994      0.283635
     -1.96300      5.58369      4.67036         0.000922      0.000073     -0.001142
      5.77558      5.55188      4.74111        -0.002831      0.047903      0.019073
     -5.75592     12.37176      4.71020        -0.049675     -0.028584      0.031368
      1.92861     12.27446      4.72152        -0.003724      0.017786     -0.019973
     -0.00426      2.27244      4.67351         0.000352      0.000268     -0.001313
      3.88354      2.22802      4.68619        -0.002955     -0.000830     -0.007035
      7.77107      2.23790      4.69785        -0.001141      0.011577     -0.003370
     11.64523      2.23909      4.69572         0.003963      0.007540     -0.007701
      1.99215      5.56569      4.74166         0.008849      0.020072      0.015802
      9.73665      5.57391      4.67677        -0.008370      0.009122     -0.000142
     -3.85225      8.94666      4.68039        -0.011712     -0.002412     -0.000102
     -0.01241      9.03772      4.74201        -0.003140     -0.016317      0.002052
      3.87701      9.10557      4.85073         0.012197     -0.026102     -0.008803
      7.80314      8.94949      4.75052        -0.034507      0.019976      0.047391
     -1.95638     12.33804      4.68867        -0.006774      0.002636     -0.004212
      5.76710     12.31283      4.74179         0.038949     -0.009404      0.001615
      0.00108      0.17546      6.34357         0.009375     -0.032422     -0.017183
      3.91770      0.02704      6.33632        -0.004681      0.002393     -0.002646
     -0.02432     13.45001      6.30333        -0.000621      0.010507     -0.003586
     11.60531      0.01699      6.31717         0.005379      0.016620     -0.015019
     13.59207      3.35739      6.29862         0.001025      0.003998     -0.004454
      5.80516      3.30130      6.32711         0.004969      0.005930     -0.004894
     -3.86400      6.70358      6.30343        -0.010238      0.005889      0.001174
     -0.15095      6.64481      6.33071        -0.007074     -0.011938     -0.017533
      3.88611      6.47104      6.87650         0.008977     -0.014840     -0.055207
      7.91172      6.59674      6.35674        -0.008600      0.004239     -0.013282
     -5.64727     10.02967      6.37305        -0.027343      0.006475     -0.017728
      1.76392     10.28854      6.78671        -0.046352      0.022242     -0.075254
      1.95882      3.32338      6.31999        -0.000992     -0.006156     -0.003974
      9.70780      3.33117      6.30940        -0.005993      0.012149     -0.005137
     -1.95468     10.12669      6.33535        -0.013751     -0.005856     -0.002314
      5.90197     10.21362      6.83433         0.075133      0.035100     -0.093632
      5.08877     11.82320     10.68562         0.027858      0.026592      0.054386
 -----------------------------------------------------------------------------------
    total drift:                               -0.007376      0.022282     -0.194084


--------------------------------------------------------------------------------------------------------



  FREE ENERGIE OF THE ION-ELECTRON SYSTEM (eV)
  ---------------------------------------------------
  free  energy   TOTEN  =      -792.05576492 eV

  energy  without entropy=     -792.05576373  energy(sigma->0) =     -792.05576433
 


--------------------------------------------------------------------------------------------------------


    POTLOK:  cpu time      0.0832: real time      0.0838


--------------------------------------------------------------------------------------------------------


 stress matrix after NEB project (eV)
      0.00000      0.00000      0.00000
      0.00000      0.00000      0.00000
      0.00000      0.00000      0.00000
  FORCES: max atom, RMS     0.125075    0.029167
  FORCE total and by dimension    0.296015    0.093632
  Stress total and by dimension    0.000000    0.000000
     LOOP+:  cpu time    883.0217: real time    889.5529
    4ORBIT:  cpu time      0.0000: real time      0.0000

 total amount of memory used by VASP MPI-rank0    77424. kBytes
=======================================================================

   base      :      30000. kBytes
   nonlr-proj:      10216. kBytes
   fftplans  :       5314. kBytes
   grid      :      15076. kBytes
   one-center:       1081. kBytes
   wavefun   :      15737. kBytes
 
  
  
 General timing and accounting informations for this job:
 ========================================================
  
                  Total CPU time used (sec):      896.302
                            User time (sec):      853.849
                          System time (sec):       42.452
                         Elapsed time (sec):      903.971
  
                   Maximum memory used (kb):      380540.
                   Average memory used (kb):          N/A
  
                          Minor page faults:       251940
                          Major page faults:          146
                 Voluntary context switches:        15656
