<?xml version="1.0" encoding="ISO-8859-1"?>
<modeling>
 <generator>
  <i name="program" type="string">vasp </i>
  <i name="version" type="string">6.4.3  </i>
  <i name="subversion" type="string">19Mar24 (build Jul 25 2024 07:57:48) complex                          parallel </i>
  <i name="platform" type="string">LinuxIFC </i>
  <i name="date" type="string">2024 10 07 </i>
  <i name="time" type="string">16:33:15 </i>
 </generator>
 <incar>
  <i type="string" name="ALGO">Normal</i>
  <i type="int" name="NSIM">     1</i>
  <i type="int" name="ISPIN">     2</i>
  <i type="int" name="NELM">   500</i>
  <i type="int" name="IBRION">     2</i>
  <i name="EDIFF">      0.00001000</i>
  <i name="EDIFFG">     -0.05000000</i>
  <i type="int" name="NSW">     0</i>
  <i type="int" name="ISIF">     0</i>
  <i name="ENCUT">    450.00000000</i>
  <i name="POTIM">      0.50000000</i>
  <i type="string" name="LREAL">AUTO</i>
  <i type="logical" name="LPLANE"> T  </i>
  <i type="int" name="ISMEAR">     0</i>
  <i name="SIGMA">      0.05000000</i>
  <i type="int" name="LMAXMIX">     6</i>
  <i type="logical" name="LWAVE"> F  </i>
  <i type="logical" name="LCHARG"> F  </i>
  <i type="logical" name="LVTOT"> F  </i>
  <i type="logical" name="LVHAR"> F  </i>
  <i type="logical" name="LELF"> F  </i>
  <i type="logical" name="LAECHG"> F  </i>
  <i type="logical" name="LDAU"> T  </i>
  <i type="int" name="LDAUTYPE">     2</i>
  <v type="int" name="LDAUL">     3    -1    -1    -1</v>
  <v name="LDAUU">      7.00000000      0.00000000      0.00000000      0.00000000</v>
  <v name="LDAUJ">      0.70000000      0.00000000      0.00000000      0.00000000</v>
  <i type="int" name="LDAUPRINT">     0</i>
 </incar>
 <primitive_cell>
  <structure name="primitive_cell" >
   <crystal>
    <varray name="basis" >
     <v>      15.53238869       0.00000000       0.00000000 </v>
     <v>      -7.76619434      13.45144318       0.00000000 </v>
     <v>       0.00000000       0.00000000      22.68197060 </v>
    </varray>
    <i name="volume">   4739.01315934 </i>
    <varray name="rec_basis" >
     <v>       0.06438160       0.03717073       0.00000000 </v>
     <v>       0.00000000       0.07434147       0.00000000 </v>
     <v>       0.00000000       0.00000000       0.04408788 </v>
    </varray>
   </crystal>
   <varray name="positions" >
    <v>       0.08333300       0.16666700       0.10483700 </v>
    <v>       0.33333299       0.16666700       0.10483700 </v>
    <v>       0.58333302       0.16666700       0.10483700 </v>
    <v>       0.83333302       0.16666700       0.10483700 </v>
    <v>       0.08333300       0.41666701       0.10483700 </v>
    <v>       0.33333299       0.41666701       0.10483700 </v>
    <v>       0.58333302       0.41666701       0.10483700 </v>
    <v>       0.83333302       0.41666701       0.10483700 </v>
    <v>       0.08333300       0.66666698       0.10483700 </v>
    <v>       0.33333299       0.66666698       0.10483700 </v>
    <v>       0.58333302       0.66666698       0.10483700 </v>
    <v>       0.83333302       0.66666698       0.10483700 </v>
    <v>       0.08333300       0.91666698       0.10483700 </v>
    <v>       0.33333299       0.91666698       0.10483700 </v>
    <v>       0.58333302       0.91666698       0.10483700 </v>
    <v>       0.83333302       0.91666698       0.10483700 </v>
    <v>       0.16639465       0.08364914       0.24358429 </v>
    <v>       0.41562680       0.08313425       0.24376565 </v>
    <v>       0.66676848       0.08521849       0.24293670 </v>
    <v>       0.91955632       0.08554111       0.24305702 </v>
    <v>       0.16533940       0.33286462       0.24277559 </v>
    <v>       0.41188603       0.32361362       0.24275191 </v>
    <v>       0.66781086       0.33274931       0.24325164 </v>
    <v>       0.91661478       0.33295762       0.24230388 </v>
    <v>       0.16422437       0.58145416       0.24295378 </v>
    <v>       0.40899845       0.58045759       0.24469280 </v>
    <v>       0.67152293       0.57907227       0.24495691 </v>
    <v>       0.91817865       0.58235637       0.24325235 </v>
    <v>       0.16577984       0.83228243       0.24393081 </v>
    <v>       0.41025745       0.83716101       0.24272037 </v>
    <v>       0.67023164       0.84219498       0.24094706 </v>
    <v>       0.92594479       0.83666651       0.24622848 </v>
    <v>       0.53607246       0.58120832       0.35938853 </v>
    <v>       0.53482235       0.74166522       0.37374652 </v>
    <v>       0.69261817       0.74259394       0.37182296 </v>
    <v>       0.57497941       0.66530303       0.45932230 </v>
    <v>       0.59652454       0.80307246       0.45190616 </v>
    <v>       0.69086703       0.81760873       0.44522363 </v>
    <v>       0.25000000       0.25000000       0.06989100 </v>
    <v>       0.75000000       0.25000000       0.06989100 </v>
    <v>       0.25000000       0.75000000       0.06989100 </v>
    <v>       0.75000000       0.75000000       0.06989100 </v>
    <v>       0.00000000       0.00000000       0.06989100 </v>
    <v>       0.25000000       0.00000000       0.06989100 </v>
    <v>       0.50000000       0.00000000       0.06989100 </v>
    <v>       0.75000000       0.00000000       0.06989100 </v>
    <v>       0.00000000       0.25000000       0.06989100 </v>
    <v>       0.50000000       0.25000000       0.06989100 </v>
    <v>       0.00000000       0.50000000       0.06989100 </v>
    <v>       0.25000000       0.50000000       0.06989100 </v>
    <v>       0.50000000       0.50000000       0.06989100 </v>
    <v>       0.75000000       0.50000000       0.06989100 </v>
    <v>       0.00000000       0.75000000       0.06989100 </v>
    <v>       0.50000000       0.75000000       0.06989100 </v>
    <v>       0.16666700       0.08333300       0.13978200 </v>
    <v>       0.66666698       0.08333300       0.13978200 </v>
    <v>       0.16666700       0.33333299       0.13978200 </v>
    <v>       0.41666701       0.33333299       0.13978200 </v>
    <v>       0.66666698       0.33333299       0.13978200 </v>
    <v>       0.91666698       0.33333299       0.13978200 </v>
    <v>       0.16666700       0.58333302       0.13978200 </v>
    <v>       0.66666698       0.58333302       0.13978200 </v>
    <v>       0.16666700       0.83333302       0.13978200 </v>
    <v>       0.41666701       0.83333302       0.13978200 </v>
    <v>       0.66666698       0.83333302       0.13978200 </v>
    <v>       0.91666597       0.83333302       0.13978200 </v>
    <v>       0.41666701       0.08333300       0.13978200 </v>
    <v>       0.91666698       0.08333300       0.13978200 </v>
    <v>       0.41666701       0.58333302       0.13978200 </v>
    <v>       0.91666698       0.58333302       0.13978200 </v>
    <v>       0.08116908       0.41509990       0.20590636 </v>
    <v>       0.57820825       0.41273457       0.20902540 </v>
    <v>       0.08929248       0.91973506       0.20766255 </v>
    <v>       0.58041778       0.91250123       0.20816174 </v>
    <v>       0.08419375       0.16893636       0.20604535 </v>
    <v>       0.33284535       0.16563395       0.20660417 </v>
    <v>       0.58349857       0.16636887       0.20711843 </v>
    <v>       0.83296734       0.16645754       0.20702430 </v>
    <v>       0.33513839       0.41376137       0.20904977 </v>
    <v>       0.83404709       0.41437264       0.20618898 </v>
    <v>       0.08453974       0.66510795       0.20634844 </v>
    <v>       0.33513945       0.67187732       0.20906503 </v>
    <v>       0.58806858       0.67692148       0.21385823 </v>
    <v>       0.83503778       0.66531831       0.20944051 </v>
    <v>       0.33265912       0.91722830       0.20671361 </v>
    <v>       0.82897201       0.91535374       0.20905557 </v>
    <v>       0.00659131       0.01304420       0.27967436 </v>
    <v>       0.25323305       0.00201007       0.27935488 </v>
    <v>       0.49838124       0.99989352       0.27790043 </v>
    <v>       0.74779959       0.00126286       0.27851063 </v>
    <v>       0.99987624       0.24959352       0.27769293 </v>
    <v>       0.49645756       0.24542367       0.27894902 </v>
    <v>       0.00040652       0.49835385       0.27790474 </v>
    <v>       0.23727395       0.49398494       0.27910770 </v>
    <v>       0.49072725       0.48106675       0.30317024 </v>
    <v>       0.75457471       0.49041144       0.28025504 </v>
    <v>       0.00922984       0.74562027       0.28097426 </v>
    <v>       0.49599694       0.76486534       0.29921164 </v>
    <v>       0.24964463       0.24706487       0.27863484 </v>
    <v>       0.74882582       0.24764394       0.27816827 </v>
    <v>       0.25057085       0.75283297       0.27931199 </v>
    <v>       0.75962583       0.75929564       0.30131097 </v>
    <v>       0.76709984       0.87895380       0.47110627 </v>
   </varray>
  </structure>
  <varray name="primitive_index" >
   <v type="int" >        1 </v>
   <v type="int" >        2 </v>
   <v type="int" >        3 </v>
   <v type="int" >        4 </v>
   <v type="int" >        5 </v>
   <v type="int" >        6 </v>
   <v type="int" >        7 </v>
   <v type="int" >        8 </v>
   <v type="int" >        9 </v>
   <v type="int" >       10 </v>
   <v type="int" >       11 </v>
   <v type="int" >       12 </v>
   <v type="int" >       13 </v>
   <v type="int" >       14 </v>
   <v type="int" >       15 </v>
   <v type="int" >       16 </v>
   <v type="int" >       17 </v>
   <v type="int" >       18 </v>
   <v type="int" >       19 </v>
   <v type="int" >       20 </v>
   <v type="int" >       21 </v>
   <v type="int" >       22 </v>
   <v type="int" >       23 </v>
   <v type="int" >       24 </v>
   <v type="int" >       25 </v>
   <v type="int" >       26 </v>
   <v type="int" >       27 </v>
   <v type="int" >       28 </v>
   <v type="int" >       29 </v>
   <v type="int" >       30 </v>
   <v type="int" >       31 </v>
   <v type="int" >       32 </v>
   <v type="int" >       33 </v>
   <v type="int" >       34 </v>
   <v type="int" >       35 </v>
   <v type="int" >       36 </v>
   <v type="int" >       37 </v>
   <v type="int" >       38 </v>
   <v type="int" >       39 </v>
   <v type="int" >       40 </v>
   <v type="int" >       41 </v>
   <v type="int" >       42 </v>
   <v type="int" >       43 </v>
   <v type="int" >       44 </v>
   <v type="int" >       45 </v>
   <v type="int" >       46 </v>
   <v type="int" >       47 </v>
   <v type="int" >       48 </v>
   <v type="int" >       49 </v>
   <v type="int" >       50 </v>
   <v type="int" >       51 </v>
   <v type="int" >       52 </v>
   <v type="int" >       53 </v>
   <v type="int" >       54 </v>
   <v type="int" >       55 </v>
   <v type="int" >       56 </v>
   <v type="int" >       57 </v>
   <v type="int" >       58 </v>
   <v type="int" >       59 </v>
   <v type="int" >       60 </v>
   <v type="int" >       61 </v>
   <v type="int" >       62 </v>
   <v type="int" >       63 </v>
   <v type="int" >       64 </v>
   <v type="int" >       65 </v>
   <v type="int" >       66 </v>
   <v type="int" >       67 </v>
   <v type="int" >       68 </v>
   <v type="int" >       69 </v>
   <v type="int" >       70 </v>
   <v type="int" >       71 </v>
   <v type="int" >       72 </v>
   <v type="int" >       73 </v>
   <v type="int" >       74 </v>
   <v type="int" >       75 </v>
   <v type="int" >       76 </v>
   <v type="int" >       77 </v>
   <v type="int" >       78 </v>
   <v type="int" >       79 </v>
   <v type="int" >       80 </v>
   <v type="int" >       81 </v>
   <v type="int" >       82 </v>
   <v type="int" >       83 </v>
   <v type="int" >       84 </v>
   <v type="int" >       85 </v>
   <v type="int" >       86 </v>
   <v type="int" >       87 </v>
   <v type="int" >       88 </v>
   <v type="int" >       89 </v>
   <v type="int" >       90 </v>
   <v type="int" >       91 </v>
   <v type="int" >       92 </v>
   <v type="int" >       93 </v>
   <v type="int" >       94 </v>
   <v type="int" >       95 </v>
   <v type="int" >       96 </v>
   <v type="int" >       97 </v>
   <v type="int" >       98 </v>
   <v type="int" >       99 </v>
   <v type="int" >      100 </v>
   <v type="int" >      101 </v>
   <v type="int" >      102 </v>
   <v type="int" >      103 </v>
  </varray>
 </primitive_cell>
 <kpoints>
  <generation param="Auto">
   <i name="subdivisionlength">     20.00000000 </i>
   <v type="int" name="divisions">       1        1        1 </v>
   <v name="usershift">      0.00000000       0.00000000       0.00000000 </v>
   <v name="genvec1">      1.00000000       0.00000000       0.00000000 </v>
   <v name="genvec2">      0.00000000       1.00000000       0.00000000 </v>
   <v name="genvec3">      0.00000000       0.00000000       1.00000000 </v>
   <v name="shift">      0.00000000       0.00000000       0.00000000 </v>
  </generation>
  <varray name="kpointlist" >
   <v>       0.00000000       0.00000000       0.00000000 </v>
  </varray>
  <varray name="weights" >
   <v>       1.00000000 </v>
  </varray>
 </kpoints>
 <parameters>
  <separator name="general" >
   <i type="string" name="SYSTEM">unknown system</i>
   <i type="logical" name="LCOMPAT"> F  </i>
  </separator>
  <separator name="electronic" >
   <i type="string" name="PREC">normal</i>
   <i name="ENMAX">    450.00000000</i>
   <i name="ENAUG">    627.11200000</i>
   <i name="EDIFF">      0.00001000</i>
   <i type="int" name="IALGO">    38</i>
   <i type="int" name="IWAVPR">    10</i>
   <i type="int" name="NBANDS">   600</i>
   <i type="int" name="NBANDSLOW">    -1</i>
   <i type="int" name="NBANDSHIGH">    -1</i>
   <i name="NELECT">    844.00000000</i>
   <i type="int" name="TURBO">     0</i>
   <i type="int" name="IRESTART">     0</i>
   <i type="int" name="NREBOOT">     0</i>
   <i type="int" name="NMIN">     0</i>
   <i name="EREF">      0.00000000</i>
   <separator name="electronic smearing" >
    <i type="int" name="ISMEAR">     0</i>
    <i name="SIGMA">      0.05000000</i>
    <i name="KSPACING">      0.50000000</i>
    <i type="logical" name="KGAMMA"> T  </i>
    <i type="logical" name="KBLOWUP"> T  </i>
   </separator>
   <separator name="electronic projectors" >
    <i type="logical" name="LREAL"> T  </i>
    <v name="ROPT">     -0.00050000     -0.00050000     -0.00050000     -0.00050000</v>
    <i type="int" name="LMAXPAW">  -100</i>
    <i type="int" name="LMAXMIX">     6</i>
    <i type="logical" name="NLSPLINE"> F  </i>
   </separator>
   <separator name="electronic startup" >
    <i type="int" name="ISTART">     0</i>
    <i type="int" name="ICHARG">     2</i>
    <i type="int" name="INIWAV">     1</i>
   </separator>
   <separator name="electronic spin" >
    <i type="int" name="ISPIN">     2</i>
    <i type="logical" name="LNONCOLLINEAR"> F  </i>
    <v name="MAGMOM">      1.00000000      1.00000000      1.00000000      1.00000000      1.00000000      1.00000000      1.00000000      1.00000000      1.00000000      1.00000000      1.00000000      1.00000000      1.00000000      1.00000000      1.00000000      1.00000000      1.00000000      1.00000000      1.00000000      1.00000000
      1.00000000      1.00000000      1.00000000      1.00000000      1.00000000      1.00000000      1.00000000      1.00000000      1.00000000      1.00000000      1.00000000      1.00000000      1.00000000      1.00000000      1.00000000      1.00000000      1.00000000      1.00000000      1.00000000      1.00000000
      1.00000000      1.00000000      1.00000000      1.00000000      1.00000000      1.00000000      1.00000000      1.00000000      1.00000000      1.00000000      1.00000000      1.00000000      1.00000000      1.00000000      1.00000000      1.00000000      1.00000000      1.00000000      1.00000000      1.00000000
      1.00000000      1.00000000      1.00000000      1.00000000      1.00000000      1.00000000      1.00000000      1.00000000      1.00000000      1.00000000      1.00000000      1.00000000      1.00000000      1.00000000      1.00000000      1.00000000      1.00000000      1.00000000      1.00000000      1.00000000
      1.00000000      1.00000000      1.00000000      1.00000000      1.00000000      1.00000000      1.00000000      1.00000000      1.00000000      1.00000000      1.00000000      1.00000000      1.00000000      1.00000000      1.00000000      1.00000000      1.00000000      1.00000000      1.00000000      1.00000000
      1.00000000      1.00000000      1.00000000</v>
    <i name="NUPDOWN">     -1.00000000</i>
    <i type="logical" name="LSORBIT"> F  </i>
    <v name="SAXIS">      0.00000000      0.00000000      1.00000000</v>
    <i type="logical" name="LSPIRAL"> F  </i>
    <v name="QSPIRAL">      0.00000000      0.00000000      0.00000000</v>
    <i type="logical" name="LZEROZ"> F  </i>
   </separator>
   <separator name="electronic exchange-correlation" >
    <i type="logical" name="LASPH"> F  </i>
   </separator>
   <separator name="electronic convergence" >
    <i type="int" name="NELM">   500</i>
    <i type="int" name="NELMDL">     0</i>
    <i type="int" name="NELMIN">     2</i>
    <i name="ENINI">    450.00000000</i>
    <separator name="electronic convergence detail" >
     <i type="logical" name="LDIAG"> T  </i>
     <i type="logical" name="LSUBROT"> F  </i>
     <i name="WEIMIN">      0.00000000</i>
     <i name="EBREAK">      0.00000000</i>
     <i name="DEPER">      0.30000000</i>
     <i type="int" name="NRMM">     4</i>
     <i name="TIME">      0.40000000</i>
    </separator>
   </separator>
   <separator name="electronic mixer" >
    <i name="AMIX">      0.40000000</i>
    <i name="BMIX">      1.00000000</i>
    <i name="AMIN">      0.10000000</i>
    <i name="AMIX_MAG">      1.60000000</i>
    <i name="BMIX_MAG">      1.00000000</i>
    <separator name="electronic mixer details" >
     <i type="int" name="IMIX">     4</i>
     <i type="logical" name="MIXFIRST"> F  </i>
     <i type="int" name="MAXMIX">   -45</i>
     <i name="WC">    100.00000000</i>
     <i type="int" name="INIMIX">     1</i>
     <i type="int" name="MIXPRE">     1</i>
     <i type="int" name="MREMOVE">     5</i>
    </separator>
   </separator>
   <separator name="electronic dipolcorrection" >
    <i type="logical" name="LDIPOL"> F  </i>
    <i type="logical" name="LMONO"> F  </i>
    <i type="int" name="IDIPOL">     0</i>
    <i name="EPSILON">      1.00000000</i>
    <v name="DIPOL">   -100.00000000   -100.00000000   -100.00000000</v>
    <i name="EFIELD">      0.00000000</i>
    <i type="logical" name="LVACPOTAV"> F  </i>
   </separator>
  </separator>
  <separator name="grids" >
   <i type="int" name="NGX">    84</i>
   <i type="int" name="NGY">    84</i>
   <i type="int" name="NGZ">   120</i>
   <i type="int" name="NGXF">   168</i>
   <i type="int" name="NGYF">   168</i>
   <i type="int" name="NGZF">   240</i>
   <i type="logical" name="ADDGRID"> F  </i>
  </separator>
  <separator name="ionic" >
   <i type="int" name="NSW">     0</i>
   <i type="int" name="IBRION">    -1</i>
   <i type="int" name="MDALGO">     0</i>
   <i type="int" name="ISIF">     0</i>
   <i name="PSTRESS">      0.00000000</i>
   <i name="EDIFFG">     -0.05000000</i>
   <i type="int" name="NFREE">     1</i>
   <i name="POTIM">      0.50000000</i>
   <i name="SMASS">     -3.00000000</i>
   <i name="SCALEE">      1.00000000</i>
  </separator>
  <separator name="ionic md" >
   <i name="TEBEG">      0.00010000</i>
   <i name="TEEND">      0.00010000</i>
   <i type="int" name="NBLOCK">     1</i>
   <i type="int" name="KBLOCK">     1</i>
   <i type="int" name="NPACO">   256</i>
   <i name="APACO">     10.00000000</i>
  </separator>
  <separator name="symmetry" >
   <i type="int" name="ISYM">     2</i>
   <i name="SYMPREC">      0.00001000</i>
  </separator>
  <separator name="dos" >
   <i type="int" name="LORBIT">     0</i>
   <v name="RWIGS">     -1.00000000     -1.00000000     -1.00000000     -1.00000000</v>
   <i type="int" name="NEDOS">   301</i>
   <i name="EMIN">     10.00000000</i>
   <i name="EMAX">    -10.00000000</i>
   <i name="EFERMI">      0.00000000</i>
  </separator>
  <separator name="writing" >
   <i type="int" name="NWRITE">     2</i>
   <i type="logical" name="LWAVE"> F  </i>
   <i type="logical" name="LDOWNSAMPLE"> F  </i>
   <i type="logical" name="LCHARG"> F  </i>
   <i type="logical" name="LPARD"> F  </i>
   <i type="logical" name="LVTOT"> F  </i>
   <i type="logical" name="LVHAR"> F  </i>
   <i type="logical" name="LELF"> F  </i>
   <i type="logical" name="LOPTICS"> F  </i>
   <v name="STM">      0.00000000      0.00000000      0.00000000      0.00000000      0.00000000      0.00000000      0.00000000</v>
  </separator>
  <separator name="performance" >
   <i type="int" name="NPAR">   120</i>
   <i type="int" name="NSIM">     1</i>
   <i type="int" name="NBLK">    -1</i>
   <i type="logical" name="LPLANE"> T  </i>
   <i type="logical" name="LSCALAPACK"> T  </i>
   <i type="logical" name="LSCAAWARE"> F  </i>
   <i type="logical" name="LSCALU"> F  </i>
   <i type="logical" name="LASYNC"> F  </i>
   <i type="logical" name="LORBITALREAL"> F  </i>
  </separator>
  <separator name="miscellaneous" >
   <i type="int" name="IDIOT">     3</i>
   <i type="int" name="PHON_NSTRUCT">    -1</i>
   <i type="logical" name="LMUSIC"> F  </i>
   <v name="POMASS">    140.11500000    102.90600000     14.00100000     16.00000000</v>
   <v name="DARWINR">      0.00000000      0.00000000      0.00000000      0.00000000</v>
   <v name="DARWINV">      1.00000000      1.00000000      1.00000000      1.00000000</v>
   <i type="logical" name="LCORR"> T  </i>
  </separator>
  <i type="logical" name="GGA_COMPAT"> T  </i>
  <i type="logical" name="LBERRY"> F  </i>
  <i type="int" name="ICORELEVEL">     0</i>
  <i type="logical" name="LDAU"> T  </i>
  <v type="int" name="LDAUTYPE">     2</v>
  <v type="int" name="LDAUL">     3</v>
  <v name="LDAUU">      7.00000000</v>
  <v name="LDAUJ">      0.70000000</v>
  <i type="int" name="LDAUPRINT">     0</i>
  <i type="int" name="I_CONSTRAINED_M">     0</i>
  <separator name="electronic exchange-correlation" >
   <i type="string" name="GGA    ">PE</i>
   <i type="string" name="XC_C">1</i>
   <i type="int" name="VOSKOWN">     0</i>
   <i type="logical" name="LHFCALC"> F  </i>
   <i type="string" name="PRECFOCK"></i>
   <i type="logical" name="LSYMGRAD"> F  </i>
   <i type="logical" name="LHFONE"> F  </i>
   <i type="logical" name="LRHFCALC"> F  </i>
   <i type="logical" name="LTHOMAS"> F  </i>
   <i type="logical" name="LMODELHF"> F  </i>
   <i type="logical" name="LFOCKACE"> F  </i>
   <i name="ENCUT4O">     -1.00000000</i>
   <i type="int" name="EXXOEP">     0</i>
   <i type="int" name="FOURORBIT">     0</i>
   <i name="AEXX">      0.00000000</i>
   <i name="HFALPHA">      0.00000000</i>
   <i name="MCALPHA">      0.00000000</i>
   <i name="ALDAX">      1.00000000</i>
   <i name="AGGAX">      1.00000000</i>
   <i name="AMGGAX">      1.00000000</i>
   <i name="ALDAC">      1.00000000</i>
   <i name="AGGAC">      1.00000000</i>
   <i name="AMGGAC">      1.00000000</i>
   <i type="int" name="NKREDX">     1</i>
   <i type="int" name="NKREDY">     1</i>
   <i type="int" name="NKREDZ">     1</i>
   <i type="logical" name="SHIFTRED"> F  </i>
   <i type="logical" name="ODDONLY"> F  </i>
   <i type="logical" name="EVENONLY"> F  </i>
   <i type="int" name="LMAXFOCK">     0</i>
   <i type="int" name="NMAXFOCKAE">     0</i>
   <i type="logical" name="LFOCKAEDFT"> F  </i>
   <i name="HFSCREEN">      0.00000000</i>
   <i name="HFSCREENC">      0.00000000</i>
   <i type="int" name="NBANDSGWLOW">     0</i>
  </separator>
  <separator name="vdW DFT" >
   <i type="logical" name="LUSE_VDW"> F  </i>
   <i type="int" name="IVDW_NL">    -1</i>
   <i type="logical" name="LSPIN_VDW"> F  </i>
   <i name="ZAB_VDW">     -0.84910000</i>
   <i name="GAMMA_VDW">      1.39626340</i>
   <i name="ALPHA_VDW">      0.00000000</i>
   <i name="PARAM1">      0.12340000</i>
   <i name="PARAM2">      1.00000000</i>
   <i name="BPARAM">      6.30000000</i>
   <i name="CPARAM">      0.00930000</i>
  </separator>
  <separator name="model GW" >
   <i type="int" name="MODEL_GW">     0</i>
   <i name="MODEL_EPS0">     27.60590190</i>
   <i name="MODEL_ALPHA">      1.00000000</i>
  </separator>
  <separator name="linear response parameters" >
   <i type="logical" name="LEPSILON"> F  </i>
   <i type="logical" name="LRPA"> F  </i>
   <i type="logical" name="LNABLA"> F  </i>
   <i type="logical" name="LVEL"> F  </i>
   <i name="CSHIFT">      0.10000000</i>
   <i name="OMEGAMAX">     -1.00000000</i>
   <i name="DEG_THRESHOLD">      0.00200000</i>
   <i name="RTIME">     -0.10000000</i>
   <i name="WPLASMAI">      0.00000000</i>
   <v name="DFIELD">      0.00000000      0.00000000      0.00000000</v>
   <v name="WPLASMA">      0.00000000      0.00000000      0.00000000      0.00000000      0.00000000      0.00000000      0.00000000      0.00000000      0.00000000</v>
  </separator>
  <separator name="orbital magnetization" >
   <i type="logical" name="NUCIND"> F  </i>
   <v name="MAGPOS">      0.00000000      0.00000000      0.00000000</v>
   <i type="logical" name="LNICSALL"> T  </i>
   <i type="logical" name="ORBITALMAG"> F  </i>
   <i type="logical" name="LMAGBLOCH"> F  </i>
   <i type="logical" name="LCHIMAG"> F  </i>
   <i type="logical" name="LGAUGE"> T  </i>
   <i type="int" name="MAGATOM">     0</i>
   <v name="MAGDIPOL">      0.00000000      0.00000000      0.00000000</v>
   <v name="AVECCONST">      0.00000000      0.00000000      0.00000000</v>
  </separator>
  <separator name="response functions" >
   <i type="logical" name="LALL_IN_ONE"> F  </i>
   <i type="int" name="IALL_IN_ONE">    -1</i>
   <i type="int" name="NBANDS_WAVE">    -1</i>
   <i type="logical" name="LFINITE_TEMPERATURE"> F  </i>
   <i type="logical" name="LADDER"> F  </i>
   <i type="logical" name="LRPAFORCE"> F  </i>
   <i type="logical" name="LFXC"> F  </i>
   <i type="logical" name="LHARTREE"> T  </i>
   <i type="int" name="IBSE">     0</i>
   <v type="int" name="KPOINT">    -1     0     0     0</v>
   <i type="logical" name="LTCTC"> F  </i>
   <i type="logical" name="LTCTE"> F  </i>
   <i type="logical" name="LTETE"> F  </i>
   <i type="logical" name="LTRIPLET"> F  </i>
   <i type="logical" name="LFXCEPS"> F  </i>
   <i type="logical" name="LFXHEG"> F  </i>
   <i type="int" name="NATURALO">     2</i>
   <i type="logical" name="LHOLEGF"> F  </i>
   <i type="logical" name="L2ORDER"> F  </i>
   <i type="logical" name="LDMP1"> F  </i>
   <i type="logical" name="LMP2LT"> F  </i>
   <i type="logical" name="LSMP2LT"> F  </i>
   <i type="logical" name="LGWLF"> F  </i>
   <i name="ENCUTGW">     -1.60000002</i>
   <i name="ENCUTGWSOFT">     -1.60000002</i>
   <i name="ENCUTLF">     -1.00000000</i>
   <i type="logical" name="ESF_SPLINES"> F  </i>
   <i name="ESF_CONV">      0.01000000</i>
   <i type="int" name="ESF_NINTER">    15</i>
   <i type="int" name="LMAXMP2">    -1</i>
   <i name="SCISSOR">      0.00000000</i>
   <i type="int" name="NOMEGA">     0</i>
   <i type="int" name="NOMEGAR">     0</i>
   <i type="int" name="NBANDSGW">    -1</i>
   <i type="int" name="NBANDSO">    -1</i>
   <i type="int" name="NBANDSV">    -1</i>
   <i type="int" name="NELMGW">     1</i>
   <i type="int" name="NELMHF">     1</i>
   <i type="int" name="DIM">     3</i>
   <i type="int" name="IESPILON">     4</i>
   <i type="int" name="ANTIRES">     0</i>
   <i name="OMEGAMAX">    -30.00000000</i>
   <i name="OMEGAMIN">    -30.00000000</i>
   <i name="OMEGATL">   -200.00000000</i>
   <i type="int" name="OMEGAGRID">     0</i>
   <i name="CSHIFT">     -0.10000000</i>
   <i type="logical" name="LSELFENERGY"> F  </i>
   <i type="logical" name="LSPECTRAL"> F  </i>
   <i type="logical" name="LSPECTRALGW"> F  </i>
   <i type="logical" name="LSINGLES"> F  </i>
   <i type="logical" name="LFERMIGW"> F  </i>
   <i type="logical" name="ODDONLYGW"> F  </i>
   <i type="logical" name="EVENONLYGW"> F  </i>
   <i type="int" name="NKREDLFX">     1</i>
   <i type="int" name="NKREDLFY">     1</i>
   <i type="int" name="NKREDLFZ">     1</i>
   <i type="int" name="MAXMEM">  2800</i>
   <i type="int" name="TELESCOPE">     0</i>
   <i type="int" name="NTAUPAR">    -1</i>
   <i type="int" name="NOMEGAPAR">    -1</i>
   <i name="DAMP_NEWTON">      0.80000001</i>
   <i name="LAMBDA">      1.00000000</i>
  </separator>
  <separator name="External order field" >
   <i name="OFIELD_KAPPA">      0.00000000</i>
   <v name="OFIELD_K">      0.00000000      0.00000000      0.00000000</v>
   <i name="OFIELD_Q6_NEAR">      0.00000000</i>
   <i name="OFIELD_Q6_FAR">      0.00000000</i>
   <i name="OFIELD_A">      0.00000000</i>
  </separator>
  <separator name="optional k-points parameters" >
   <i type="int" name="KPOINTS_OPT_MODE">     1</i>
   <i type="logical" name="LKPOINTS_OPT"> F  </i>
  </separator>
  <separator name="solvation model" >
   <i type="logical" name="LSOL"> F  </i>
  </separator>
 </parameters>
 <atominfo>
  <atoms>     103 </atoms>
  <types>       4 </types>
  <array name="atoms" >
   <dimension dim="1">ion</dimension>
   <field type="string">element</field>
   <field type="int">atomtype</field>
   <set>
    <rc><c>Ce</c><c>   1</c></rc>
    <rc><c>Ce</c><c>   1</c></rc>
    <rc><c>Ce</c><c>   1</c></rc>
    <rc><c>Ce</c><c>   1</c></rc>
    <rc><c>Ce</c><c>   1</c></rc>
    <rc><c>Ce</c><c>   1</c></rc>
    <rc><c>Ce</c><c>   1</c></rc>
    <rc><c>Ce</c><c>   1</c></rc>
    <rc><c>Ce</c><c>   1</c></rc>
    <rc><c>Ce</c><c>   1</c></rc>
    <rc><c>Ce</c><c>   1</c></rc>
    <rc><c>Ce</c><c>   1</c></rc>
    <rc><c>Ce</c><c>   1</c></rc>
    <rc><c>Ce</c><c>   1</c></rc>
    <rc><c>Ce</c><c>   1</c></rc>
    <rc><c>Ce</c><c>   1</c></rc>
    <rc><c>Ce</c><c>   1</c></rc>
    <rc><c>Ce</c><c>   1</c></rc>
    <rc><c>Ce</c><c>   1</c></rc>
    <rc><c>Ce</c><c>   1</c></rc>
    <rc><c>Ce</c><c>   1</c></rc>
    <rc><c>Ce</c><c>   1</c></rc>
    <rc><c>Ce</c><c>   1</c></rc>
    <rc><c>Ce</c><c>   1</c></rc>
    <rc><c>Ce</c><c>   1</c></rc>
    <rc><c>Ce</c><c>   1</c></rc>
    <rc><c>Ce</c><c>   1</c></rc>
    <rc><c>Ce</c><c>   1</c></rc>
    <rc><c>Ce</c><c>   1</c></rc>
    <rc><c>Ce</c><c>   1</c></rc>
    <rc><c>Ce</c><c>   1</c></rc>
    <rc><c>Ce</c><c>   1</c></rc>
    <rc><c>Rh</c><c>   2</c></rc>
    <rc><c>Rh</c><c>   2</c></rc>
    <rc><c>Rh</c><c>   2</c></rc>
    <rc><c>Rh</c><c>   2</c></rc>
    <rc><c>N </c><c>   3</c></rc>
    <rc><c>N </c><c>   3</c></rc>
    <rc><c>O </c><c>   4</c></rc>
    <rc><c>O </c><c>   4</c></rc>
    <rc><c>O </c><c>   4</c></rc>
    <rc><c>O </c><c>   4</c></rc>
    <rc><c>O </c><c>   4</c></rc>
    <rc><c>O </c><c>   4</c></rc>
    <rc><c>O </c><c>   4</c></rc>
    <rc><c>O </c><c>   4</c></rc>
    <rc><c>O </c><c>   4</c></rc>
    <rc><c>O </c><c>   4</c></rc>
    <rc><c>O </c><c>   4</c></rc>
    <rc><c>O </c><c>   4</c></rc>
    <rc><c>O </c><c>   4</c></rc>
    <rc><c>O </c><c>   4</c></rc>
    <rc><c>O </c><c>   4</c></rc>
    <rc><c>O </c><c>   4</c></rc>
    <rc><c>O </c><c>   4</c></rc>
    <rc><c>O </c><c>   4</c></rc>
    <rc><c>O </c><c>   4</c></rc>
    <rc><c>O </c><c>   4</c></rc>
    <rc><c>O </c><c>   4</c></rc>
    <rc><c>O </c><c>   4</c></rc>
    <rc><c>O </c><c>   4</c></rc>
    <rc><c>O </c><c>   4</c></rc>
    <rc><c>O </c><c>   4</c></rc>
    <rc><c>O </c><c>   4</c></rc>
    <rc><c>O </c><c>   4</c></rc>
    <rc><c>O </c><c>   4</c></rc>
    <rc><c>O </c><c>   4</c></rc>
    <rc><c>O </c><c>   4</c></rc>
    <rc><c>O </c><c>   4</c></rc>
    <rc><c>O </c><c>   4</c></rc>
    <rc><c>O </c><c>   4</c></rc>
    <rc><c>O </c><c>   4</c></rc>
    <rc><c>O </c><c>   4</c></rc>
    <rc><c>O </c><c>   4</c></rc>
    <rc><c>O </c><c>   4</c></rc>
    <rc><c>O </c><c>   4</c></rc>
    <rc><c>O </c><c>   4</c></rc>
    <rc><c>O </c><c>   4</c></rc>
    <rc><c>O </c><c>   4</c></rc>
    <rc><c>O </c><c>   4</c></rc>
    <rc><c>O </c><c>   4</c></rc>
    <rc><c>O </c><c>   4</c></rc>
    <rc><c>O </c><c>   4</c></rc>
    <rc><c>O </c><c>   4</c></rc>
    <rc><c>O </c><c>   4</c></rc>
    <rc><c>O </c><c>   4</c></rc>
    <rc><c>O </c><c>   4</c></rc>
    <rc><c>O </c><c>   4</c></rc>
    <rc><c>O </c><c>   4</c></rc>
    <rc><c>O </c><c>   4</c></rc>
    <rc><c>O </c><c>   4</c></rc>
    <rc><c>O </c><c>   4</c></rc>
    <rc><c>O </c><c>   4</c></rc>
    <rc><c>O </c><c>   4</c></rc>
    <rc><c>O </c><c>   4</c></rc>
    <rc><c>O </c><c>   4</c></rc>
    <rc><c>O </c><c>   4</c></rc>
    <rc><c>O </c><c>   4</c></rc>
    <rc><c>O </c><c>   4</c></rc>
    <rc><c>O </c><c>   4</c></rc>
    <rc><c>O </c><c>   4</c></rc>
    <rc><c>O </c><c>   4</c></rc>
    <rc><c>O </c><c>   4</c></rc>
   </set>
  </array>
  <array name="atomtypes" >
   <dimension dim="1">type</dimension>
   <field type="int">atomspertype</field>
   <field type="string">element</field>
   <field>mass</field>
   <field>valence</field>
   <field type="string">pseudopotential</field>
   <set>
    <rc><c>  32</c><c>Ce</c><c>    140.11500000</c><c>     12.00000000</c><c>  PAW_PBE Ce 23Dec2003                  </c></rc>
    <rc><c>   4</c><c>Rh</c><c>    102.90600000</c><c>     15.00000000</c><c>  PAW_PBE Rh_pv 25Jan2005               </c></rc>
    <rc><c>   2</c><c>N </c><c>     14.00100000</c><c>      5.00000000</c><c>  PAW_PBE N 08Apr2002                   </c></rc>
    <rc><c>  65</c><c>O </c><c>     16.00000000</c><c>      6.00000000</c><c>  PAW_PBE O 08Apr2002                   </c></rc>
   </set>
  </array>
 </atominfo>
 <structure name="initialpos" >
  <crystal>
   <varray name="basis" >
    <v>      15.53238869       0.00000000       0.00000000 </v>
    <v>      -7.76619434      13.45144318       0.00000000 </v>
    <v>       0.00000000       0.00000000      22.68197060 </v>
   </varray>
   <i name="volume">   4739.01315934 </i>
   <varray name="rec_basis" >
    <v>       0.06438160       0.03717073       0.00000000 </v>
    <v>       0.00000000       0.07434147       0.00000000 </v>
    <v>       0.00000000       0.00000000       0.04408788 </v>
   </varray>
  </crystal>
  <varray name="positions" >
   <v>       0.08333300       0.16666700       0.10483700 </v>
   <v>       0.33333299       0.16666700       0.10483700 </v>
   <v>       0.58333302       0.16666700       0.10483700 </v>
   <v>       0.83333302       0.16666700       0.10483700 </v>
   <v>       0.08333300       0.41666701       0.10483700 </v>
   <v>       0.33333299       0.41666701       0.10483700 </v>
   <v>       0.58333302       0.41666701       0.10483700 </v>
   <v>       0.83333302       0.41666701       0.10483700 </v>
   <v>       0.08333300       0.66666698       0.10483700 </v>
   <v>       0.33333299       0.66666698       0.10483700 </v>
   <v>       0.58333302       0.66666698       0.10483700 </v>
   <v>       0.83333302       0.66666698       0.10483700 </v>
   <v>       0.08333300       0.91666698       0.10483700 </v>
   <v>       0.33333299       0.91666698       0.10483700 </v>
   <v>       0.58333302       0.91666698       0.10483700 </v>
   <v>       0.83333302       0.91666698       0.10483700 </v>
   <v>       0.16639465       0.08364914       0.24358429 </v>
   <v>       0.41562680       0.08313425       0.24376565 </v>
   <v>       0.66676848       0.08521849       0.24293670 </v>
   <v>       0.91955632       0.08554111       0.24305702 </v>
   <v>       0.16533940       0.33286462       0.24277559 </v>
   <v>       0.41188603       0.32361362       0.24275191 </v>
   <v>       0.66781086       0.33274931       0.24325164 </v>
   <v>       0.91661478       0.33295762       0.24230388 </v>
   <v>       0.16422437       0.58145416       0.24295378 </v>
   <v>       0.40899845       0.58045759       0.24469280 </v>
   <v>       0.67152293       0.57907227       0.24495691 </v>
   <v>       0.91817865       0.58235637       0.24325235 </v>
   <v>       0.16577984       0.83228243       0.24393081 </v>
   <v>       0.41025745       0.83716101       0.24272037 </v>
   <v>       0.67023164       0.84219498       0.24094706 </v>
   <v>       0.92594479       0.83666651       0.24622848 </v>
   <v>       0.53607246       0.58120832       0.35938853 </v>
   <v>       0.53482235       0.74166522       0.37374652 </v>
   <v>       0.69261817       0.74259394       0.37182296 </v>
   <v>       0.57497941       0.66530303       0.45932230 </v>
   <v>       0.59652454       0.80307246       0.45190616 </v>
   <v>       0.69086703       0.81760873       0.44522363 </v>
   <v>       0.25000000       0.25000000       0.06989100 </v>
   <v>       0.75000000       0.25000000       0.06989100 </v>
   <v>       0.25000000       0.75000000       0.06989100 </v>
   <v>       0.75000000       0.75000000       0.06989100 </v>
   <v>       0.00000000       0.00000000       0.06989100 </v>
   <v>       0.25000000       0.00000000       0.06989100 </v>
   <v>       0.50000000       0.00000000       0.06989100 </v>
   <v>       0.75000000       0.00000000       0.06989100 </v>
   <v>       0.00000000       0.25000000       0.06989100 </v>
   <v>       0.50000000       0.25000000       0.06989100 </v>
   <v>       0.00000000       0.50000000       0.06989100 </v>
   <v>       0.25000000       0.50000000       0.06989100 </v>
   <v>       0.50000000       0.50000000       0.06989100 </v>
   <v>       0.75000000       0.50000000       0.06989100 </v>
   <v>       0.00000000       0.75000000       0.06989100 </v>
   <v>       0.50000000       0.75000000       0.06989100 </v>
   <v>       0.16666700       0.08333300       0.13978200 </v>
   <v>       0.66666698       0.08333300       0.13978200 </v>
   <v>       0.16666700       0.33333299       0.13978200 </v>
   <v>       0.41666701       0.33333299       0.13978200 </v>
   <v>       0.66666698       0.33333299       0.13978200 </v>
   <v>       0.91666698       0.33333299       0.13978200 </v>
   <v>       0.16666700       0.58333302       0.13978200 </v>
   <v>       0.66666698       0.58333302       0.13978200 </v>
   <v>       0.16666700       0.83333302       0.13978200 </v>
   <v>       0.41666701       0.83333302       0.13978200 </v>
   <v>       0.66666698       0.83333302       0.13978200 </v>
   <v>       0.91666597       0.83333302       0.13978200 </v>
   <v>       0.41666701       0.08333300       0.13978200 </v>
   <v>       0.91666698       0.08333300       0.13978200 </v>
   <v>       0.41666701       0.58333302       0.13978200 </v>
   <v>       0.91666698       0.58333302       0.13978200 </v>
   <v>       0.08116908       0.41509990       0.20590636 </v>
   <v>       0.57820825       0.41273457       0.20902540 </v>
   <v>       0.08929248       0.91973506       0.20766255 </v>
   <v>       0.58041778       0.91250123       0.20816174 </v>
   <v>       0.08419375       0.16893636       0.20604535 </v>
   <v>       0.33284535       0.16563395       0.20660417 </v>
   <v>       0.58349857       0.16636887       0.20711843 </v>
   <v>       0.83296734       0.16645754       0.20702430 </v>
   <v>       0.33513839       0.41376137       0.20904977 </v>
   <v>       0.83404709       0.41437264       0.20618898 </v>
   <v>       0.08453974       0.66510795       0.20634844 </v>
   <v>       0.33513945       0.67187732       0.20906503 </v>
   <v>       0.58806858       0.67692148       0.21385823 </v>
   <v>       0.83503778       0.66531831       0.20944051 </v>
   <v>       0.33265912       0.91722830       0.20671361 </v>
   <v>       0.82897201       0.91535374       0.20905557 </v>
   <v>       0.00659131       0.01304420       0.27967436 </v>
   <v>       0.25323305       0.00201007       0.27935488 </v>
   <v>       0.49838124       0.99989352       0.27790043 </v>
   <v>       0.74779959       0.00126286       0.27851063 </v>
   <v>       0.99987624       0.24959352       0.27769293 </v>
   <v>       0.49645756       0.24542367       0.27894902 </v>
   <v>       0.00040652       0.49835385       0.27790474 </v>
   <v>       0.23727395       0.49398494       0.27910770 </v>
   <v>       0.49072725       0.48106675       0.30317024 </v>
   <v>       0.75457471       0.49041144       0.28025504 </v>
   <v>       0.00922984       0.74562027       0.28097426 </v>
   <v>       0.49599694       0.76486534       0.29921164 </v>
   <v>       0.24964463       0.24706487       0.27863484 </v>
   <v>       0.74882582       0.24764394       0.27816827 </v>
   <v>       0.25057085       0.75283297       0.27931199 </v>
   <v>       0.75962583       0.75929564       0.30131097 </v>
   <v>       0.76709984       0.87895380       0.47110627 </v>
  </varray>
  <varray name="selective"  type="logical" >
   <v type="logical" >  F  F  F </v>
   <v type="logical" >  F  F  F </v>
   <v type="logical" >  F  F  F </v>
   <v type="logical" >  F  F  F </v>
   <v type="logical" >  F  F  F </v>
   <v type="logical" >  F  F  F </v>
   <v type="logical" >  F  F  F </v>
   <v type="logical" >  F  F  F </v>
   <v type="logical" >  F  F  F </v>
   <v type="logical" >  F  F  F </v>
   <v type="logical" >  F  F  F </v>
   <v type="logical" >  F  F  F </v>
   <v type="logical" >  F  F  F </v>
   <v type="logical" >  F  F  F </v>
   <v type="logical" >  F  F  F </v>
   <v type="logical" >  F  F  F </v>
   <v type="logical" >  T  T  T </v>
   <v type="logical" >  T  T  T </v>
   <v type="logical" >  T  T  T </v>
   <v type="logical" >  T  T  T </v>
   <v type="logical" >  T  T  T </v>
   <v type="logical" >  T  T  T </v>
   <v type="logical" >  T  T  T </v>
   <v type="logical" >  T  T  T </v>
   <v type="logical" >  T  T  T </v>
   <v type="logical" >  T  T  T </v>
   <v type="logical" >  T  T  T </v>
   <v type="logical" >  T  T  T </v>
   <v type="logical" >  T  T  T </v>
   <v type="logical" >  T  T  T </v>
   <v type="logical" >  T  T  T </v>
   <v type="logical" >  T  T  T </v>
   <v type="logical" >  T  T  T </v>
   <v type="logical" >  T  T  T </v>
   <v type="logical" >  T  T  T </v>
   <v type="logical" >  T  T  T </v>
   <v type="logical" >  T  T  T </v>
   <v type="logical" >  T  T  T </v>
   <v type="logical" >  F  F  F </v>
   <v type="logical" >  F  F  F </v>
   <v type="logical" >  F  F  F </v>
   <v type="logical" >  F  F  F </v>
   <v type="logical" >  F  F  F </v>
   <v type="logical" >  F  F  F </v>
   <v type="logical" >  F  F  F </v>
   <v type="logical" >  F  F  F </v>
   <v type="logical" >  F  F  F </v>
   <v type="logical" >  F  F  F </v>
   <v type="logical" >  F  F  F </v>
   <v type="logical" >  F  F  F </v>
   <v type="logical" >  F  F  F </v>
   <v type="logical" >  F  F  F </v>
   <v type="logical" >  F  F  F </v>
   <v type="logical" >  F  F  F </v>
   <v type="logical" >  F  F  F </v>
   <v type="logical" >  F  F  F </v>
   <v type="logical" >  F  F  F </v>
   <v type="logical" >  F  F  F </v>
   <v type="logical" >  F  F  F </v>
   <v type="logical" >  F  F  F </v>
   <v type="logical" >  F  F  F </v>
   <v type="logical" >  F  F  F </v>
   <v type="logical" >  F  F  F </v>
   <v type="logical" >  F  F  F </v>
   <v type="logical" >  F  F  F </v>
   <v type="logical" >  F  F  F </v>
   <v type="logical" >  F  F  F </v>
   <v type="logical" >  F  F  F </v>
   <v type="logical" >  F  F  F </v>
   <v type="logical" >  F  F  F </v>
   <v type="logical" >  T  T  T </v>
   <v type="logical" >  T  T  T </v>
   <v type="logical" >  T  T  T </v>
   <v type="logical" >  T  T  T </v>
   <v type="logical" >  T  T  T </v>
   <v type="logical" >  T  T  T </v>
   <v type="logical" >  T  T  T </v>
   <v type="logical" >  T  T  T </v>
   <v type="logical" >  T  T  T </v>
   <v type="logical" >  T  T  T </v>
   <v type="logical" >  T  T  T </v>
   <v type="logical" >  T  T  T </v>
   <v type="logical" >  T  T  T </v>
   <v type="logical" >  T  T  T </v>
   <v type="logical" >  T  T  T </v>
   <v type="logical" >  T  T  T </v>
   <v type="logical" >  T  T  T </v>
   <v type="logical" >  T  T  T </v>
   <v type="logical" >  T  T  T </v>
   <v type="logical" >  T  T  T </v>
   <v type="logical" >  T  T  T </v>
   <v type="logical" >  T  T  T </v>
   <v type="logical" >  T  T  T </v>
   <v type="logical" >  T  T  T </v>
   <v type="logical" >  T  T  T </v>
   <v type="logical" >  T  T  T </v>
   <v type="logical" >  T  T  T </v>
   <v type="logical" >  T  T  T </v>
   <v type="logical" >  T  T  T </v>
   <v type="logical" >  T  T  T </v>
   <v type="logical" >  T  T  T </v>
   <v type="logical" >  T  T  T </v>
   <v type="logical" >  T  T  T </v>
  </varray>
  <nose>
   <v>      -3.00000000       0.00000000       0.00010000       0.00010000 </v>
  </nose>
 </structure>
 <calculation>
  <scstep>
   <time name="dav">    5.00    5.05</time>
   <time name="total">    5.18    5.23</time>
   <energy>
    <i name="alphaZ">   1367.00335504 </i>
    <i name="ewald"> 215851.02765727 </i>
    <i name="hartreedc">-278377.05743155 </i>
    <i name="XCdc">   2251.96900013 </i>
    <i name="pawpsdc">  57643.40774443 </i>
    <i name="pawaedc"> -56972.79012806 </i>
    <i name="eentropy">     -0.08372617 </i>
    <i name="bandstr">   -914.94475600 </i>
    <i name="atom">  71554.89795037 </i>
    <i name="e_fr_energy">  12403.42966547 </i>
    <i name="e_wo_entrp">  12403.51339164 </i>
    <i name="e_0_energy">  12403.47152855 </i>
   </energy>
  </scstep>
  <scstep>
   <time name="dav">    6.79    6.84</time>
   <time name="total">    6.79    6.84</time>
   <energy>
    <i name="e_fr_energy">   3136.46808786 </i>
    <i name="e_wo_entrp">   3136.66231195 </i>
    <i name="e_0_energy">   3136.56519990 </i>
   </energy>
  </scstep>
  <scstep>
   <time name="dav">    7.76    7.81</time>
   <time name="total">    7.76    7.81</time>
   <energy>
    <i name="e_fr_energy">   -732.75464766 </i>
    <i name="e_wo_entrp">   -732.71879796 </i>
    <i name="e_0_energy">   -732.73672281 </i>
   </energy>
  </scstep>
  <scstep>
   <time name="dav">    6.23    6.27</time>
   <time name="total">    6.23    6.27</time>
   <energy>
    <i name="e_fr_energy">   -981.67085858 </i>
    <i name="e_wo_entrp">   -981.64774438 </i>
    <i name="e_0_energy">   -981.65930148 </i>
   </energy>
  </scstep>
  <scstep>
   <time name="dav">   10.38   10.44</time>
   <time name="total">   10.66   10.72</time>
   <energy>
    <i name="e_fr_energy">  -1001.77690314 </i>
    <i name="e_wo_entrp">  -1001.71980763 </i>
    <i name="e_0_energy">  -1001.74835538 </i>
   </energy>
  </scstep>
  <scstep>
   <time name="dav">    7.87    7.91</time>
   <time name="total">    8.27    8.32</time>
   <energy>
    <i name="e_fr_energy">   -680.93427195 </i>
    <i name="e_wo_entrp">   -680.75624861 </i>
    <i name="e_0_energy">   -680.84526028 </i>
   </energy>
  </scstep>
  <scstep>
   <time name="dav">    6.22    6.25</time>
   <time name="total">    6.60    6.65</time>
   <energy>
    <i name="e_fr_energy">   -719.23936126 </i>
    <i name="e_wo_entrp">   -719.21488719 </i>
    <i name="e_0_energy">   -719.22712423 </i>
   </energy>
  </scstep>
  <scstep>
   <time name="dav">    8.67    8.71</time>
   <time name="total">    9.05    9.12</time>
   <energy>
    <i name="e_fr_energy">   -727.68825456 </i>
    <i name="e_wo_entrp">   -727.64184349 </i>
    <i name="e_0_energy">   -727.66504903 </i>
   </energy>
  </scstep>
  <scstep>
   <time name="dav">    8.77    8.81</time>
   <time name="total">    9.17    9.22</time>
   <energy>
    <i name="e_fr_energy">   -688.67209087 </i>
    <i name="e_wo_entrp">   -688.66849253 </i>
    <i name="e_0_energy">   -688.67029170 </i>
   </energy>
  </scstep>
  <scstep>
   <time name="dav">    8.21    8.26</time>
   <time name="total">    8.61    8.66</time>
   <energy>
    <i name="e_fr_energy">   -677.36291904 </i>
    <i name="e_wo_entrp">   -677.35892750 </i>
    <i name="e_0_energy">   -677.36092327 </i>
   </energy>
  </scstep>
  <scstep>
   <time name="dav">    8.45    8.49</time>
   <time name="total">    8.84    8.89</time>
   <energy>
    <i name="e_fr_energy">   -673.16395130 </i>
    <i name="e_wo_entrp">   -673.16118783 </i>
    <i name="e_0_energy">   -673.16256956 </i>
   </energy>
  </scstep>
  <scstep>
   <time name="dav">    8.93    8.98</time>
   <time name="total">    9.34    9.39</time>
   <energy>
    <i name="e_fr_energy">   -670.19061291 </i>
    <i name="e_wo_entrp">   -670.13939323 </i>
    <i name="e_0_energy">   -670.16500307 </i>
   </energy>
  </scstep>
  <scstep>
   <time name="dav">    8.57    8.62</time>
   <time name="total">    8.97    9.02</time>
   <energy>
    <i name="e_fr_energy">   -687.42424094 </i>
    <i name="e_wo_entrp">   -687.37287396 </i>
    <i name="e_0_energy">   -687.39855745 </i>
   </energy>
  </scstep>
  <scstep>
   <time name="dav">    9.13    9.18</time>
   <time name="total">    9.52    9.58</time>
   <energy>
    <i name="e_fr_energy">   -679.38514289 </i>
    <i name="e_wo_entrp">   -679.38453666 </i>
    <i name="e_0_energy">   -679.38483978 </i>
   </energy>
  </scstep>
  <scstep>
   <time name="dav">    9.26    9.31</time>
   <time name="total">    9.65    9.71</time>
   <energy>
    <i name="e_fr_energy">   -692.26664955 </i>
    <i name="e_wo_entrp">   -692.24027423 </i>
    <i name="e_0_energy">   -692.25346189 </i>
   </energy>
  </scstep>
  <scstep>
   <time name="dav">    8.12    8.16</time>
   <time name="total">    8.52    8.58</time>
   <energy>
    <i name="e_fr_energy">   -709.52166834 </i>
    <i name="e_wo_entrp">   -709.49438668 </i>
    <i name="e_0_energy">   -709.50802751 </i>
   </energy>
  </scstep>
  <scstep>
   <time name="dav">    8.45    8.49</time>
   <time name="total">    8.84    8.90</time>
   <energy>
    <i name="e_fr_energy">   -728.85574643 </i>
    <i name="e_wo_entrp">   -728.83188994 </i>
    <i name="e_0_energy">   -728.84381818 </i>
   </energy>
  </scstep>
  <scstep>
   <time name="dav">    7.84    7.88</time>
   <time name="total">    8.24    8.28</time>
   <energy>
    <i name="e_fr_energy">   -748.56833544 </i>
    <i name="e_wo_entrp">   -748.50389315 </i>
    <i name="e_0_energy">   -748.53611429 </i>
   </energy>
  </scstep>
  <scstep>
   <time name="dav">   10.07   10.13</time>
   <time name="total">   10.47   10.53</time>
   <energy>
    <i name="e_fr_energy">   -747.49014727 </i>
    <i name="e_wo_entrp">   -747.45269597 </i>
    <i name="e_0_energy">   -747.47142162 </i>
   </energy>
  </scstep>
  <scstep>
   <time name="dav">    7.90    7.94</time>
   <time name="total">    8.28    8.34</time>
   <energy>
    <i name="e_fr_energy">   -753.97275334 </i>
    <i name="e_wo_entrp">   -753.96213568 </i>
    <i name="e_0_energy">   -753.96744451 </i>
   </energy>
  </scstep>
  <scstep>
   <time name="dav">   10.44   10.50</time>
   <time name="total">   10.84   10.90</time>
   <energy>
    <i name="e_fr_energy">   -758.04000350 </i>
    <i name="e_wo_entrp">   -758.04000243 </i>
    <i name="e_0_energy">   -758.04000297 </i>
   </energy>
  </scstep>
  <scstep>
   <time name="dav">    7.56    7.60</time>
   <time name="total">    7.96    8.01</time>
   <energy>
    <i name="e_fr_energy">   -768.26836029 </i>
    <i name="e_wo_entrp">   -768.24541249 </i>
    <i name="e_0_energy">   -768.25688639 </i>
   </energy>
  </scstep>
  <scstep>
   <time name="dav">    9.02    9.07</time>
   <time name="total">    9.41    9.47</time>
   <energy>
    <i name="e_fr_energy">   -768.96672163 </i>
    <i name="e_wo_entrp">   -768.93660606 </i>
    <i name="e_0_energy">   -768.95166385 </i>
   </energy>
  </scstep>
  <scstep>
   <time name="dav">    8.34    8.38</time>
   <time name="total">    8.72    8.79</time>
   <energy>
    <i name="e_fr_energy">   -771.77589374 </i>
    <i name="e_wo_entrp">   -771.75661417 </i>
    <i name="e_0_energy">   -771.76625395 </i>
   </energy>
  </scstep>
  <scstep>
   <time name="dav">    8.43    8.48</time>
   <time name="total">    8.82    8.88</time>
   <energy>
    <i name="e_fr_energy">   -771.67009019 </i>
    <i name="e_wo_entrp">   -771.65318448 </i>
    <i name="e_0_energy">   -771.66163733 </i>
   </energy>
  </scstep>
  <scstep>
   <time name="dav">   10.36   10.41</time>
   <time name="total">   10.75   10.82</time>
   <energy>
    <i name="e_fr_energy">   -771.62324978 </i>
    <i name="e_wo_entrp">   -771.59894436 </i>
    <i name="e_0_energy">   -771.61109707 </i>
   </energy>
  </scstep>
  <scstep>
   <time name="dav">    9.11    9.16</time>
   <time name="total">    9.52    9.57</time>
   <energy>
    <i name="e_fr_energy">   -771.67986086 </i>
    <i name="e_wo_entrp">   -771.66720819 </i>
    <i name="e_0_energy">   -771.67353452 </i>
   </energy>
  </scstep>
  <scstep>
   <time name="dav">    7.83    7.87</time>
   <time name="total">    8.23    8.27</time>
   <energy>
    <i name="e_fr_energy">   -773.38105158 </i>
    <i name="e_wo_entrp">   -773.36146480 </i>
    <i name="e_0_energy">   -773.37125819 </i>
   </energy>
  </scstep>
  <scstep>
   <time name="dav">    7.80    7.84</time>
   <time name="total">    8.19    8.24</time>
   <energy>
    <i name="e_fr_energy">   -774.16586876 </i>
    <i name="e_wo_entrp">   -774.13947718 </i>
    <i name="e_0_energy">   -774.15267297 </i>
   </energy>
  </scstep>
  <scstep>
   <time name="dav">    7.50    7.54</time>
   <time name="total">    7.90    7.95</time>
   <energy>
    <i name="e_fr_energy">   -774.21446912 </i>
    <i name="e_wo_entrp">   -774.17696100 </i>
    <i name="e_0_energy">   -774.19571506 </i>
   </energy>
  </scstep>
  <scstep>
   <time name="dav">    8.15    8.20</time>
   <time name="total">    8.54    8.60</time>
   <energy>
    <i name="e_fr_energy">   -774.28197828 </i>
    <i name="e_wo_entrp">   -774.24709793 </i>
    <i name="e_0_energy">   -774.26453811 </i>
   </energy>
  </scstep>
  <scstep>
   <time name="dav">    8.08    8.12</time>
   <time name="total">    8.49    8.53</time>
   <energy>
    <i name="e_fr_energy">   -774.31482374 </i>
    <i name="e_wo_entrp">   -774.27999393 </i>
    <i name="e_0_energy">   -774.29740884 </i>
   </energy>
  </scstep>
  <scstep>
   <time name="dav">    7.60    7.64</time>
   <time name="total">    7.99    8.05</time>
   <energy>
    <i name="e_fr_energy">   -774.51613564 </i>
    <i name="e_wo_entrp">   -774.48079182 </i>
    <i name="e_0_energy">   -774.49846373 </i>
   </energy>
  </scstep>
  <scstep>
   <time name="dav">    7.00    7.04</time>
   <time name="total">    7.40    7.45</time>
   <energy>
    <i name="e_fr_energy">   -774.52144447 </i>
    <i name="e_wo_entrp">   -774.48597796 </i>
    <i name="e_0_energy">   -774.50371121 </i>
   </energy>
  </scstep>
  <scstep>
   <time name="dav">    6.93    6.96</time>
   <time name="total">    7.33    7.37</time>
   <energy>
    <i name="e_fr_energy">   -774.77316345 </i>
    <i name="e_wo_entrp">   -774.73961856 </i>
    <i name="e_0_energy">   -774.75639100 </i>
   </energy>
  </scstep>
  <scstep>
   <time name="dav">    7.79    7.83</time>
   <time name="total">    8.19    8.23</time>
   <energy>
    <i name="e_fr_energy">   -774.90483225 </i>
    <i name="e_wo_entrp">   -774.87141955 </i>
    <i name="e_0_energy">   -774.88812590 </i>
   </energy>
  </scstep>
  <scstep>
   <time name="dav">    7.07    7.11</time>
   <time name="total">    7.47    7.51</time>
   <energy>
    <i name="e_fr_energy">   -774.85838744 </i>
    <i name="e_wo_entrp">   -774.82451101 </i>
    <i name="e_0_energy">   -774.84144923 </i>
   </energy>
  </scstep>
  <scstep>
   <time name="dav">    7.50    7.54</time>
   <time name="total">    7.90    7.95</time>
   <energy>
    <i name="e_fr_energy">   -774.89364013 </i>
    <i name="e_wo_entrp">   -774.86234602 </i>
    <i name="e_0_energy">   -774.87799307 </i>
   </energy>
  </scstep>
  <scstep>
   <time name="dav">    7.45    7.49</time>
   <time name="total">    7.85    7.89</time>
   <energy>
    <i name="e_fr_energy">   -775.60391256 </i>
    <i name="e_wo_entrp">   -775.57647122 </i>
    <i name="e_0_energy">   -775.59019189 </i>
   </energy>
  </scstep>
  <scstep>
   <time name="dav">    7.75    7.79</time>
   <time name="total">    8.13    8.20</time>
   <energy>
    <i name="e_fr_energy">   -775.99799322 </i>
    <i name="e_wo_entrp">   -775.95957009 </i>
    <i name="e_0_energy">   -775.97878165 </i>
   </energy>
  </scstep>
  <scstep>
   <time name="dav">    6.94    6.98</time>
   <time name="total">    7.35    7.39</time>
   <energy>
    <i name="e_fr_energy">   -775.97388914 </i>
    <i name="e_wo_entrp">   -775.93556648 </i>
    <i name="e_0_energy">   -775.95472781 </i>
   </energy>
  </scstep>
  <scstep>
   <time name="dav">    6.89    6.93</time>
   <time name="total">    7.29    7.34</time>
   <energy>
    <i name="e_fr_energy">   -775.86033141 </i>
    <i name="e_wo_entrp">   -775.81869270 </i>
    <i name="e_0_energy">   -775.83951206 </i>
   </energy>
  </scstep>
  <scstep>
   <time name="dav">    8.44    8.48</time>
   <time name="total">    8.83    8.89</time>
   <energy>
    <i name="e_fr_energy">   -775.95946513 </i>
    <i name="e_wo_entrp">   -775.92092250 </i>
    <i name="e_0_energy">   -775.94019381 </i>
   </energy>
  </scstep>
  <scstep>
   <time name="dav">    7.44    7.48</time>
   <time name="total">    7.83    7.89</time>
   <energy>
    <i name="e_fr_energy">   -775.90808873 </i>
    <i name="e_wo_entrp">   -775.87958727 </i>
    <i name="e_0_energy">   -775.89383800 </i>
   </energy>
  </scstep>
  <scstep>
   <time name="dav">    7.09    7.13</time>
   <time name="total">    7.49    7.53</time>
   <energy>
    <i name="e_fr_energy">   -775.91800077 </i>
    <i name="e_wo_entrp">   -775.89032947 </i>
    <i name="e_0_energy">   -775.90416512 </i>
   </energy>
  </scstep>
  <scstep>
   <time name="dav">    7.23    7.27</time>
   <time name="total">    7.64    7.68</time>
   <energy>
    <i name="e_fr_energy">   -775.70605907 </i>
    <i name="e_wo_entrp">   -775.67959305 </i>
    <i name="e_0_energy">   -775.69282606 </i>
   </energy>
  </scstep>
  <scstep>
   <time name="dav">    7.54    7.58</time>
   <time name="total">    7.95    7.99</time>
   <energy>
    <i name="e_fr_energy">   -775.67638775 </i>
    <i name="e_wo_entrp">   -775.65176616 </i>
    <i name="e_0_energy">   -775.66407696 </i>
   </energy>
  </scstep>
  <scstep>
   <time name="dav">    7.73    7.77</time>
   <time name="total">    8.12    8.18</time>
   <energy>
    <i name="e_fr_energy">   -775.85801523 </i>
    <i name="e_wo_entrp">   -775.83403082 </i>
    <i name="e_0_energy">   -775.84602303 </i>
   </energy>
  </scstep>
  <scstep>
   <time name="dav">    7.82    7.87</time>
   <time name="total">    8.22    8.27</time>
   <energy>
    <i name="e_fr_energy">   -775.85426253 </i>
    <i name="e_wo_entrp">   -775.83189767 </i>
    <i name="e_0_energy">   -775.84308010 </i>
   </energy>
  </scstep>
  <scstep>
   <time name="dav">    8.42    8.47</time>
   <time name="total">    8.82    8.88</time>
   <energy>
    <i name="e_fr_energy">   -775.85831197 </i>
    <i name="e_wo_entrp">   -775.83600131 </i>
    <i name="e_0_energy">   -775.84715664 </i>
   </energy>
  </scstep>
  <scstep>
   <time name="dav">    7.80    7.85</time>
   <time name="total">    8.21    8.26</time>
   <energy>
    <i name="e_fr_energy">   -769.50783607 </i>
    <i name="e_wo_entrp">   -769.49199874 </i>
    <i name="e_0_energy">   -769.49991740 </i>
   </energy>
  </scstep>
  <scstep>
   <time name="dav">    8.89    8.95</time>
   <time name="total">    9.29    9.35</time>
   <energy>
    <i name="e_fr_energy">   -769.70066790 </i>
    <i name="e_wo_entrp">   -769.69178884 </i>
    <i name="e_0_energy">   -769.69622837 </i>
   </energy>
  </scstep>
  <scstep>
   <time name="dav">    7.88    7.93</time>
   <time name="total">    8.28    8.34</time>
   <energy>
    <i name="e_fr_energy">   -770.77119842 </i>
    <i name="e_wo_entrp">   -770.75060059 </i>
    <i name="e_0_energy">   -770.76089950 </i>
   </energy>
  </scstep>
  <scstep>
   <time name="dav">    8.06    8.11</time>
   <time name="total">    8.46    8.52</time>
   <energy>
    <i name="e_fr_energy">   -774.26581981 </i>
    <i name="e_wo_entrp">   -774.26338799 </i>
    <i name="e_0_energy">   -774.26460390 </i>
   </energy>
  </scstep>
  <scstep>
   <time name="dav">    8.03    8.08</time>
   <time name="total">    8.44    8.49</time>
   <energy>
    <i name="e_fr_energy">   -777.51343848 </i>
    <i name="e_wo_entrp">   -777.49864405 </i>
    <i name="e_0_energy">   -777.50604126 </i>
   </energy>
  </scstep>
  <scstep>
   <time name="dav">    7.98    8.03</time>
   <time name="total">    8.39    8.44</time>
   <energy>
    <i name="e_fr_energy">   -781.63451087 </i>
    <i name="e_wo_entrp">   -781.62797685 </i>
    <i name="e_0_energy">   -781.63124386 </i>
   </energy>
  </scstep>
  <scstep>
   <time name="dav">    8.70    8.75</time>
   <time name="total">    9.10    9.16</time>
   <energy>
    <i name="e_fr_energy">   -783.13269955 </i>
    <i name="e_wo_entrp">   -783.12953154 </i>
    <i name="e_0_energy">   -783.13111555 </i>
   </energy>
  </scstep>
  <scstep>
   <time name="dav">    8.60    8.65</time>
   <time name="total">    9.00    9.06</time>
   <energy>
    <i name="e_fr_energy">   -783.87357575 </i>
    <i name="e_wo_entrp">   -783.86896234 </i>
    <i name="e_0_energy">   -783.87126905 </i>
   </energy>
  </scstep>
  <scstep>
   <time name="dav">    8.67    8.72</time>
   <time name="total">    9.07    9.12</time>
   <energy>
    <i name="e_fr_energy">   -783.60052802 </i>
    <i name="e_wo_entrp">   -783.59572812 </i>
    <i name="e_0_energy">   -783.59812807 </i>
   </energy>
  </scstep>
  <scstep>
   <time name="dav">    7.72    7.76</time>
   <time name="total">    8.11    8.17</time>
   <energy>
    <i name="e_fr_energy">   -782.76464297 </i>
    <i name="e_wo_entrp">   -782.76121629 </i>
    <i name="e_0_energy">   -782.76292963 </i>
   </energy>
  </scstep>
  <scstep>
   <time name="dav">    7.44    7.48</time>
   <time name="total">    7.83    7.89</time>
   <energy>
    <i name="e_fr_energy">   -778.35915874 </i>
    <i name="e_wo_entrp">   -778.35886317 </i>
    <i name="e_0_energy">   -778.35901095 </i>
   </energy>
  </scstep>
  <scstep>
   <time name="dav">    8.31    8.35</time>
   <time name="total">    8.71    8.76</time>
   <energy>
    <i name="e_fr_energy">   -778.06559945 </i>
    <i name="e_wo_entrp">   -778.06517424 </i>
    <i name="e_0_energy">   -778.06538685 </i>
   </energy>
  </scstep>
  <scstep>
   <time name="dav">    9.00    9.05</time>
   <time name="total">    9.40    9.47</time>
   <energy>
    <i name="e_fr_energy">   -777.07010379 </i>
    <i name="e_wo_entrp">   -777.06965602 </i>
    <i name="e_0_energy">   -777.06987991 </i>
   </energy>
  </scstep>
  <scstep>
   <time name="dav">    9.48    9.54</time>
   <time name="total">    9.88    9.95</time>
   <energy>
    <i name="e_fr_energy">   -776.86911002 </i>
    <i name="e_wo_entrp">   -776.86856166 </i>
    <i name="e_0_energy">   -776.86883584 </i>
   </energy>
  </scstep>
  <scstep>
   <time name="dav">    8.34    8.38</time>
   <time name="total">    8.73    8.79</time>
   <energy>
    <i name="e_fr_energy">   -777.02517213 </i>
    <i name="e_wo_entrp">   -777.02468630 </i>
    <i name="e_0_energy">   -777.02492921 </i>
   </energy>
  </scstep>
  <scstep>
   <time name="dav">    6.56    6.59</time>
   <time name="total">    6.95    7.00</time>
   <energy>
    <i name="e_fr_energy">   -780.22165415 </i>
    <i name="e_wo_entrp">   -780.20052200 </i>
    <i name="e_0_energy">   -780.21108808 </i>
   </energy>
  </scstep>
  <scstep>
   <time name="dav">    7.63    7.67</time>
   <time name="total">    8.03    8.07</time>
   <energy>
    <i name="e_fr_energy">   -781.95987876 </i>
    <i name="e_wo_entrp">   -781.93280903 </i>
    <i name="e_0_energy">   -781.94634389 </i>
   </energy>
  </scstep>
  <scstep>
   <time name="dav">    6.35    6.39</time>
   <time name="total">    6.76    6.80</time>
   <energy>
    <i name="e_fr_energy">   -782.35210653 </i>
    <i name="e_wo_entrp">   -782.32390785 </i>
    <i name="e_0_energy">   -782.33800719 </i>
   </energy>
  </scstep>
  <scstep>
   <time name="dav">    8.07    8.12</time>
   <time name="total">    8.47    8.53</time>
   <energy>
    <i name="e_fr_energy">   -782.51656635 </i>
    <i name="e_wo_entrp">   -782.49321019 </i>
    <i name="e_0_energy">   -782.50488827 </i>
   </energy>
  </scstep>
  <scstep>
   <time name="dav">    8.72    8.77</time>
   <time name="total">    9.12    9.18</time>
   <energy>
    <i name="e_fr_energy">   -782.54441961 </i>
    <i name="e_wo_entrp">   -782.52223921 </i>
    <i name="e_0_energy">   -782.53332941 </i>
   </energy>
  </scstep>
  <scstep>
   <time name="dav">    6.84    6.88</time>
   <time name="total">    7.24    7.29</time>
   <energy>
    <i name="e_fr_energy">   -782.45139715 </i>
    <i name="e_wo_entrp">   -782.43662768 </i>
    <i name="e_0_energy">   -782.44401242 </i>
   </energy>
  </scstep>
  <scstep>
   <time name="dav">    7.68    7.72</time>
   <time name="total">    8.07    8.13</time>
   <energy>
    <i name="e_fr_energy">   -783.62106713 </i>
    <i name="e_wo_entrp">   -783.60093546 </i>
    <i name="e_0_energy">   -783.61100130 </i>
   </energy>
  </scstep>
  <scstep>
   <time name="dav">    7.09    7.13</time>
   <time name="total">    7.48    7.54</time>
   <energy>
    <i name="e_fr_energy">   -784.74754160 </i>
    <i name="e_wo_entrp">   -784.74709828 </i>
    <i name="e_0_energy">   -784.74731994 </i>
   </energy>
  </scstep>
  <scstep>
   <time name="dav">    8.36    8.41</time>
   <time name="total">    8.76    8.81</time>
   <energy>
    <i name="e_fr_energy">   -785.80153533 </i>
    <i name="e_wo_entrp">   -785.80141982 </i>
    <i name="e_0_energy">   -785.80147758 </i>
   </energy>
  </scstep>
  <scstep>
   <time name="dav">    8.69    8.74</time>
   <time name="total">    9.09    9.15</time>
   <energy>
    <i name="e_fr_energy">   -786.05523169 </i>
    <i name="e_wo_entrp">   -786.05514819 </i>
    <i name="e_0_energy">   -786.05518994 </i>
   </energy>
  </scstep>
  <scstep>
   <time name="dav">    7.32    7.36</time>
   <time name="total">    7.72    7.77</time>
   <energy>
    <i name="e_fr_energy">   -786.66338980 </i>
    <i name="e_wo_entrp">   -786.66333195 </i>
    <i name="e_0_energy">   -786.66336087 </i>
   </energy>
  </scstep>
  <scstep>
   <time name="dav">    7.38    7.42</time>
   <time name="total">    7.81    7.86</time>
   <energy>
    <i name="e_fr_energy">   -787.11411802 </i>
    <i name="e_wo_entrp">   -787.11408010 </i>
    <i name="e_0_energy">   -787.11409906 </i>
   </energy>
  </scstep>
  <scstep>
   <time name="dav">    7.82    7.87</time>
   <time name="total">    8.25    8.30</time>
   <energy>
    <i name="e_fr_energy">   -787.37892378 </i>
    <i name="e_wo_entrp">   -787.37890131 </i>
    <i name="e_0_energy">   -787.37891255 </i>
   </energy>
  </scstep>
  <scstep>
   <time name="dav">    7.78    7.82</time>
   <time name="total">    8.17    8.23</time>
   <energy>
    <i name="e_fr_energy">   -787.46364794 </i>
    <i name="e_wo_entrp">   -787.46362130 </i>
    <i name="e_0_energy">   -787.46363462 </i>
   </energy>
  </scstep>
  <scstep>
   <time name="dav">    7.87    7.91</time>
   <time name="total">    8.27    8.33</time>
   <energy>
    <i name="e_fr_energy">   -787.45262113 </i>
    <i name="e_wo_entrp">   -787.45259167 </i>
    <i name="e_0_energy">   -787.45260640 </i>
   </energy>
  </scstep>
  <scstep>
   <time name="dav">    6.48    6.52</time>
   <time name="total">    6.89    6.93</time>
   <energy>
    <i name="e_fr_energy">   -788.02418721 </i>
    <i name="e_wo_entrp">   -788.02415638 </i>
    <i name="e_0_energy">   -788.02417180 </i>
   </energy>
  </scstep>
  <scstep>
   <time name="dav">    7.36    7.41</time>
   <time name="total">    7.76    7.81</time>
   <energy>
    <i name="e_fr_energy">   -787.91552698 </i>
    <i name="e_wo_entrp">   -787.91551109 </i>
    <i name="e_0_energy">   -787.91551903 </i>
   </energy>
  </scstep>
  <scstep>
   <time name="dav">    7.45    7.49</time>
   <time name="total">    7.84    7.90</time>
   <energy>
    <i name="e_fr_energy">   -787.76645006 </i>
    <i name="e_wo_entrp">   -787.76641930 </i>
    <i name="e_0_energy">   -787.76643468 </i>
   </energy>
  </scstep>
  <scstep>
   <time name="dav">    7.44    7.50</time>
   <time name="total">    7.83    7.91</time>
   <energy>
    <i name="e_fr_energy">   -787.62590377 </i>
    <i name="e_wo_entrp">   -787.62589751 </i>
    <i name="e_0_energy">   -787.62590064 </i>
   </energy>
  </scstep>
  <scstep>
   <time name="dav">    8.89    8.95</time>
   <time name="total">    9.30    9.37</time>
   <energy>
    <i name="e_fr_energy">   -787.32756382 </i>
    <i name="e_wo_entrp">   -787.32754583 </i>
    <i name="e_0_energy">   -787.32755482 </i>
   </energy>
  </scstep>
  <scstep>
   <time name="dav">    7.13    7.17</time>
   <time name="total">    7.54    7.58</time>
   <energy>
    <i name="e_fr_energy">   -788.89125230 </i>
    <i name="e_wo_entrp">   -788.89125203 </i>
    <i name="e_0_energy">   -788.89125216 </i>
   </energy>
  </scstep>
  <scstep>
   <time name="dav">    8.01    8.05</time>
   <time name="total">    8.41    8.46</time>
   <energy>
    <i name="e_fr_energy">   -789.12979724 </i>
    <i name="e_wo_entrp">   -789.12979457 </i>
    <i name="e_0_energy">   -789.12979591 </i>
   </energy>
  </scstep>
  <scstep>
   <time name="dav">    7.54    7.58</time>
   <time name="total">    7.94    7.99</time>
   <energy>
    <i name="e_fr_energy">   -789.05805460 </i>
    <i name="e_wo_entrp">   -789.05802861 </i>
    <i name="e_0_energy">   -789.05804160 </i>
   </energy>
  </scstep>
  <scstep>
   <time name="dav">    6.83    6.86</time>
   <time name="total">    7.21    7.27</time>
   <energy>
    <i name="e_fr_energy">   -789.06064417 </i>
    <i name="e_wo_entrp">   -789.06033969 </i>
    <i name="e_0_energy">   -789.06049193 </i>
   </energy>
  </scstep>
  <scstep>
   <time name="dav">    7.20    7.24</time>
   <time name="total">    7.61    7.65</time>
   <energy>
    <i name="e_fr_energy">   -788.99668806 </i>
    <i name="e_wo_entrp">   -788.99619942 </i>
    <i name="e_0_energy">   -788.99644374 </i>
   </energy>
  </scstep>
  <scstep>
   <time name="dav">    7.16    7.20</time>
   <time name="total">    7.55    7.60</time>
   <energy>
    <i name="e_fr_energy">   -789.20624856 </i>
    <i name="e_wo_entrp">   -789.20617616 </i>
    <i name="e_0_energy">   -789.20621236 </i>
   </energy>
  </scstep>
  <scstep>
   <time name="dav">    7.70    7.75</time>
   <time name="total">    8.11    8.16</time>
   <energy>
    <i name="e_fr_energy">   -789.78468460 </i>
    <i name="e_wo_entrp">   -789.78467399 </i>
    <i name="e_0_energy">   -789.78467929 </i>
   </energy>
  </scstep>
  <scstep>
   <time name="dav">    7.49    7.53</time>
   <time name="total">    7.90    7.96</time>
   <energy>
    <i name="e_fr_energy">   -790.18553729 </i>
    <i name="e_wo_entrp">   -790.18551053 </i>
    <i name="e_0_energy">   -790.18552391 </i>
   </energy>
  </scstep>
  <scstep>
   <time name="dav">    7.72    7.77</time>
   <time name="total">    8.12    8.18</time>
   <energy>
    <i name="e_fr_energy">   -790.48639710 </i>
    <i name="e_wo_entrp">   -790.48639434 </i>
    <i name="e_0_energy">   -790.48639572 </i>
   </energy>
  </scstep>
  <scstep>
   <time name="dav">    8.17    8.22</time>
   <time name="total">    8.59    8.64</time>
   <energy>
    <i name="e_fr_energy">   -790.64076367 </i>
    <i name="e_wo_entrp">   -790.64075318 </i>
    <i name="e_0_energy">   -790.64075842 </i>
   </energy>
  </scstep>
  <scstep>
   <time name="dav">    8.35    8.39</time>
   <time name="total">    8.75    8.81</time>
   <energy>
    <i name="e_fr_energy">   -790.18295727 </i>
    <i name="e_wo_entrp">   -790.18291202 </i>
    <i name="e_0_energy">   -790.18293464 </i>
   </energy>
  </scstep>
  <scstep>
   <time name="dav">    7.98    8.02</time>
   <time name="total">    8.37    8.43</time>
   <energy>
    <i name="e_fr_energy">   -790.06061235 </i>
    <i name="e_wo_entrp">   -790.06059695 </i>
    <i name="e_0_energy">   -790.06060465 </i>
   </energy>
  </scstep>
  <scstep>
   <time name="dav">    7.75    7.79</time>
   <time name="total">    8.14    8.20</time>
   <energy>
    <i name="e_fr_energy">   -789.82587941 </i>
    <i name="e_wo_entrp">   -789.82586104 </i>
    <i name="e_0_energy">   -789.82587022 </i>
   </energy>
  </scstep>
  <scstep>
   <time name="dav">   10.13   10.19</time>
   <time name="total">   10.53   10.60</time>
   <energy>
    <i name="e_fr_energy">   -789.77664588 </i>
    <i name="e_wo_entrp">   -789.77662713 </i>
    <i name="e_0_energy">   -789.77663651 </i>
   </energy>
  </scstep>
  <scstep>
   <time name="dav">    6.88    6.92</time>
   <time name="total">    7.29    7.33</time>
   <energy>
    <i name="e_fr_energy">   -789.75869134 </i>
    <i name="e_wo_entrp">   -789.75867350 </i>
    <i name="e_0_energy">   -789.75868242 </i>
   </energy>
  </scstep>
  <scstep>
   <time name="dav">    6.56    6.60</time>
   <time name="total">    6.97    7.01</time>
   <energy>
    <i name="e_fr_energy">   -789.92334630 </i>
    <i name="e_wo_entrp">   -789.92332468 </i>
    <i name="e_0_energy">   -789.92333549 </i>
   </energy>
  </scstep>
  <scstep>
   <time name="dav">    8.07    8.12</time>
   <time name="total">    8.47    8.52</time>
   <energy>
    <i name="e_fr_energy">   -789.92065528 </i>
    <i name="e_wo_entrp">   -789.92061279 </i>
    <i name="e_0_energy">   -789.92063404 </i>
   </energy>
  </scstep>
  <scstep>
   <time name="dav">    8.15    8.20</time>
   <time name="total">    8.55    8.60</time>
   <energy>
    <i name="e_fr_energy">   -789.97483546 </i>
    <i name="e_wo_entrp">   -789.97480783 </i>
    <i name="e_0_energy">   -789.97482165 </i>
   </energy>
  </scstep>
  <scstep>
   <time name="dav">    6.83    6.87</time>
   <time name="total">    7.24    7.28</time>
   <energy>
    <i name="e_fr_energy">   -790.11123269 </i>
    <i name="e_wo_entrp">   -790.11122397 </i>
    <i name="e_0_energy">   -790.11122833 </i>
   </energy>
  </scstep>
  <scstep>
   <time name="dav">    6.82    6.86</time>
   <time name="total">    7.23    7.27</time>
   <energy>
    <i name="e_fr_energy">   -790.41207059 </i>
    <i name="e_wo_entrp">   -790.41206605 </i>
    <i name="e_0_energy">   -790.41206832 </i>
   </energy>
  </scstep>
  <scstep>
   <time name="dav">    6.86    6.90</time>
   <time name="total">    7.26    7.31</time>
   <energy>
    <i name="e_fr_energy">   -790.92849935 </i>
    <i name="e_wo_entrp">   -790.92849853 </i>
    <i name="e_0_energy">   -790.92849894 </i>
   </energy>
  </scstep>
  <scstep>
   <time name="dav">    8.16    8.20</time>
   <time name="total">    8.56    8.61</time>
   <energy>
    <i name="e_fr_energy">   -791.23030726 </i>
    <i name="e_wo_entrp">   -791.23030630 </i>
    <i name="e_0_energy">   -791.23030678 </i>
   </energy>
  </scstep>
  <scstep>
   <time name="dav">    8.20    8.25</time>
   <time name="total">    8.60    8.66</time>
   <energy>
    <i name="e_fr_energy">   -791.55071650 </i>
    <i name="e_wo_entrp">   -791.55071595 </i>
    <i name="e_0_energy">   -791.55071623 </i>
   </energy>
  </scstep>
  <scstep>
   <time name="dav">    6.94    6.97</time>
   <time name="total">    7.34    7.38</time>
   <energy>
    <i name="e_fr_energy">   -791.77322911 </i>
    <i name="e_wo_entrp">   -791.77322865 </i>
    <i name="e_0_energy">   -791.77322888 </i>
   </energy>
  </scstep>
  <scstep>
   <time name="dav">   10.05   10.11</time>
   <time name="total">   10.45   10.52</time>
   <energy>
    <i name="e_fr_energy">   -791.84497201 </i>
    <i name="e_wo_entrp">   -791.84497138 </i>
    <i name="e_0_energy">   -791.84497169 </i>
   </energy>
  </scstep>
  <scstep>
   <time name="dav">    7.27    7.31</time>
   <time name="total">    7.66    7.72</time>
   <energy>
    <i name="e_fr_energy">   -791.86160459 </i>
    <i name="e_wo_entrp">   -791.86160380 </i>
    <i name="e_0_energy">   -791.86160419 </i>
   </energy>
  </scstep>
  <scstep>
   <time name="dav">    7.10    7.14</time>
   <time name="total">    7.48    7.55</time>
   <energy>
    <i name="e_fr_energy">   -791.89969531 </i>
    <i name="e_wo_entrp">   -791.89969451 </i>
    <i name="e_0_energy">   -791.89969491 </i>
   </energy>
  </scstep>
  <scstep>
   <time name="dav">    7.29    7.33</time>
   <time name="total">    7.69    7.74</time>
   <energy>
    <i name="e_fr_energy">   -791.94165825 </i>
    <i name="e_wo_entrp">   -791.94165741 </i>
    <i name="e_0_energy">   -791.94165783 </i>
   </energy>
  </scstep>
  <scstep>
   <time name="dav">    6.81    6.86</time>
   <time name="total">    7.20    7.26</time>
   <energy>
    <i name="e_fr_energy">   -791.97870634 </i>
    <i name="e_wo_entrp">   -791.97870549 </i>
    <i name="e_0_energy">   -791.97870592 </i>
   </energy>
  </scstep>
  <scstep>
   <time name="dav">    7.19    7.23</time>
   <time name="total">    7.59    7.64</time>
   <energy>
    <i name="e_fr_energy">   -792.00292642 </i>
    <i name="e_wo_entrp">   -792.00292558 </i>
    <i name="e_0_energy">   -792.00292600 </i>
   </energy>
  </scstep>
  <scstep>
   <time name="dav">    6.56    6.59</time>
   <time name="total">    6.96    7.00</time>
   <energy>
    <i name="e_fr_energy">   -791.84900690 </i>
    <i name="e_wo_entrp">   -791.84900609 </i>
    <i name="e_0_energy">   -791.84900650 </i>
   </energy>
  </scstep>
  <scstep>
   <time name="dav">    7.62    7.67</time>
   <time name="total">    8.03    8.08</time>
   <energy>
    <i name="e_fr_energy">   -791.99306432 </i>
    <i name="e_wo_entrp">   -791.99304604 </i>
    <i name="e_0_energy">   -791.99305518 </i>
   </energy>
  </scstep>
  <scstep>
   <time name="dav">    7.44    7.49</time>
   <time name="total">    7.84    7.89</time>
   <energy>
    <i name="e_fr_energy">   -791.98774667 </i>
    <i name="e_wo_entrp">   -791.98774612 </i>
    <i name="e_0_energy">   -791.98774640 </i>
   </energy>
  </scstep>
  <scstep>
   <time name="dav">    8.40    8.45</time>
   <time name="total">    8.80    8.85</time>
   <energy>
    <i name="e_fr_energy">   -792.01865729 </i>
    <i name="e_wo_entrp">   -792.01865682 </i>
    <i name="e_0_energy">   -792.01865706 </i>
   </energy>
  </scstep>
  <scstep>
   <time name="dav">    7.83    7.87</time>
   <time name="total">    8.23    8.28</time>
   <energy>
    <i name="e_fr_energy">   -792.02980486 </i>
    <i name="e_wo_entrp">   -792.02980439 </i>
    <i name="e_0_energy">   -792.02980462 </i>
   </energy>
  </scstep>
  <scstep>
   <time name="dav">    7.29    7.34</time>
   <time name="total">    7.68    7.75</time>
   <energy>
    <i name="e_fr_energy">   -792.03860361 </i>
    <i name="e_wo_entrp">   -792.03860311 </i>
    <i name="e_0_energy">   -792.03860336 </i>
   </energy>
  </scstep>
  <scstep>
   <time name="dav">    7.45    7.50</time>
   <time name="total">    7.85    7.91</time>
   <energy>
    <i name="e_fr_energy">   -792.04349200 </i>
    <i name="e_wo_entrp">   -792.04349149 </i>
    <i name="e_0_energy">   -792.04349174 </i>
   </energy>
  </scstep>
  <scstep>
   <time name="dav">    8.16    8.21</time>
   <time name="total">    8.56    8.62</time>
   <energy>
    <i name="e_fr_energy">   -792.04613292 </i>
    <i name="e_wo_entrp">   -792.04613244 </i>
    <i name="e_0_energy">   -792.04613268 </i>
   </energy>
  </scstep>
  <scstep>
   <time name="dav">    6.82    6.86</time>
   <time name="total">    7.22    7.27</time>
   <energy>
    <i name="e_fr_energy">   -792.04922738 </i>
    <i name="e_wo_entrp">   -792.04922688 </i>
    <i name="e_0_energy">   -792.04922713 </i>
   </energy>
  </scstep>
  <scstep>
   <time name="dav">    7.10    7.14</time>
   <time name="total">    7.49    7.55</time>
   <energy>
[...]
       <r>   -30.0075     0.0000    44.0000 </r>
       <r>   -29.8246     0.0000    44.0000 </r>
       <r>   -29.6417     0.0000    44.0000 </r>
       <r>   -29.4588     0.0000    44.0000 </r>
       <r>   -29.2759     0.0000    44.0000 </r>
       <r>   -29.0930     0.0000    44.0000 </r>
       <r>   -28.9100     0.0000    44.0000 </r>
       <r>   -28.7271     0.0000    44.0000 </r>
       <r>   -28.5442     0.0000    44.0000 </r>
       <r>   -28.3613     0.0000    44.0000 </r>
       <r>   -28.1784     0.0000    44.0000 </r>
       <r>   -27.9955     0.0000    44.0000 </r>
       <r>   -27.8125     0.0000    44.0000 </r>
       <r>   -27.6296     0.0000    44.0000 </r>
       <r>   -27.4467     0.0000    44.0000 </r>
       <r>   -27.2638     0.0000    44.0000 </r>
       <r>   -27.0809     0.0000    44.0000 </r>
       <r>   -26.8980     0.0000    44.0000 </r>
       <r>   -26.7151     0.0000    44.0000 </r>
       <r>   -26.5321     0.0795    44.0145 </r>
       <r>   -26.3492     5.3799    44.9986 </r>
       <r>   -26.1663     0.0076    45.0000 </r>
       <r>   -25.9834     0.0000    45.0000 </r>
       <r>   -25.8005     0.0000    45.0000 </r>
       <r>   -25.6176     0.0000    45.0000 </r>
       <r>   -25.4347     0.0000    45.0000 </r>
       <r>   -25.2517     0.0000    45.0000 </r>
       <r>   -25.0688     0.0000    45.0000 </r>
       <r>   -24.8859     0.0000    45.0000 </r>
       <r>   -24.7030     0.0000    45.0000 </r>
       <r>   -24.5201     0.0000    45.0000 </r>
       <r>   -24.3372     0.0000    45.0000 </r>
       <r>   -24.1542     0.0000    45.0000 </r>
       <r>   -23.9713     0.0000    45.0000 </r>
       <r>   -23.7884     0.0000    45.0000 </r>
       <r>   -23.6055     0.0000    45.0000 </r>
       <r>   -23.4226     0.0000    45.0000 </r>
       <r>   -23.2397     0.0000    45.0000 </r>
       <r>   -23.0568     0.0000    45.0000 </r>
       <r>   -22.8738     0.0000    45.0000 </r>
       <r>   -22.6909     0.0000    45.0000 </r>
       <r>   -22.5080     0.0000    45.0000 </r>
       <r>   -22.3251     0.0000    45.0000 </r>
       <r>   -22.1422     0.0000    45.0000 </r>
       <r>   -21.9593     0.0000    45.0000 </r>
       <r>   -21.7764     0.0000    45.0000 </r>
       <r>   -21.5934     2.5648    45.4691 </r>
       <r>   -21.4105    16.1716    48.4272 </r>
       <r>   -21.2276    35.5261    54.9254 </r>
       <r>   -21.0447    45.3959    63.2290 </r>
       <r>   -20.8618    31.3894    68.9706 </r>
       <r>   -20.6789    12.6380    71.2823 </r>
       <r>   -20.4960    22.3498    75.3704 </r>
       <r>   -20.3130    21.3932    79.2836 </r>
       <r>   -20.1301    21.5706    83.2291 </r>
       <r>   -19.9472    41.9150    90.8960 </r>
       <r>   -19.7643    22.7162    95.0511 </r>
       <r>   -19.5814    17.4250    98.2384 </r>
       <r>   -19.3985    17.6145   101.4604 </r>
       <r>   -19.2155     5.1093   102.3950 </r>
       <r>   -19.0326    59.4404   113.2675 </r>
       <r>   -18.8497    74.9043   126.9686 </r>
       <r>   -18.6668    45.9238   135.3688 </r>
       <r>   -18.4839    12.5187   137.6586 </r>
       <r>   -18.3010    20.0488   141.3258 </r>
       <r>   -18.1181    28.9778   146.6263 </r>
       <r>   -17.9351    21.2080   150.5056 </r>
       <r>   -17.7522    18.0499   153.8072 </r>
       <r>   -17.5693    11.6165   155.9320 </r>
       <r>   -17.3864     2.4371   156.3778 </r>
       <r>   -17.2035    17.0705   159.5002 </r>
       <r>   -17.0206    23.7957   163.8528 </r>
       <r>   -16.8377    30.3635   169.4067 </r>
       <r>   -16.6547    27.6213   174.4591 </r>
       <r>   -16.4718    33.8988   180.6597 </r>
       <r>   -16.2889    16.0864   183.6021 </r>
       <r>   -16.1060    34.4208   189.8982 </r>
       <r>   -15.9231    44.3098   198.0031 </r>
       <r>   -15.7402    12.4416   200.2789 </r>
       <r>   -15.5573    14.8448   202.9942 </r>
       <r>   -15.3743    11.3400   205.0685 </r>
       <r>   -15.1914     5.0925   206.0000 </r>
       <r>   -15.0085     0.0000   206.0000 </r>
       <r>   -14.8256     0.0000   206.0000 </r>
       <r>   -14.6427     0.0000   206.0000 </r>
       <r>   -14.4598     0.0000   206.0000 </r>
       <r>   -14.2768     0.0000   206.0000 </r>
       <r>   -14.0939     0.0000   206.0000 </r>
       <r>   -13.9110     0.0000   206.0000 </r>
       <r>   -13.7281     0.0000   206.0000 </r>
       <r>   -13.5452     0.0000   206.0000 </r>
       <r>   -13.3623     0.0000   206.0000 </r>
       <r>   -13.1794     0.0000   206.0000 </r>
       <r>   -12.9964     0.0000   206.0000 </r>
       <r>   -12.8135     0.5511   206.1008 </r>
       <r>   -12.6306     4.9157   207.0000 </r>
       <r>   -12.4477     0.0003   207.0000 </r>
       <r>   -12.2648     0.0000   207.0000 </r>
       <r>   -12.0819     0.0000   207.0000 </r>
       <r>   -11.8990     0.0000   207.0000 </r>
       <r>   -11.7160     0.0000   207.0000 </r>
       <r>   -11.5331     0.0000   207.0000 </r>
       <r>   -11.3502     0.0000   207.0000 </r>
       <r>   -11.1673     0.0000   207.0000 </r>
       <r>   -10.9844     0.0000   207.0000 </r>
       <r>   -10.8015     0.0000   207.0000 </r>
       <r>   -10.6185     0.0000   207.0000 </r>
       <r>   -10.4356     0.0192   207.0035 </r>
       <r>   -10.2527     5.4117   207.9934 </r>
       <r>   -10.0698     0.0361   208.0000 </r>
       <r>    -9.8869     0.0102   208.0019 </r>
       <r>    -9.7040     5.3940   208.9885 </r>
       <r>    -9.5211     0.0628   209.0000 </r>
       <r>    -9.3381     2.3698   209.4335 </r>
       <r>    -9.1552     3.0972   210.0000 </r>
       <r>    -8.9723     0.0000   210.0000 </r>
       <r>    -8.7894     0.0000   210.0000 </r>
       <r>    -8.6065     0.0000   210.0000 </r>
       <r>    -8.4236     0.0000   210.0000 </r>
       <r>    -8.2407     0.0000   210.0000 </r>
       <r>    -8.0577     0.0000   210.0000 </r>
       <r>    -7.8748     0.1523   210.0279 </r>
       <r>    -7.6919     5.3117   210.9994 </r>
       <r>    -7.5090     0.0030   211.0000 </r>
       <r>    -7.3261     0.0013   211.0002 </r>
       <r>    -7.1432     6.1567   212.1264 </r>
       <r>    -6.9603     4.7760   213.0000 </r>
       <r>    -6.7773     0.0198   213.0036 </r>
       <r>    -6.5944     5.4121   213.9936 </r>
       <r>    -6.4115     3.5617   214.6450 </r>
       <r>    -6.2286    13.9746   217.2012 </r>
       <r>    -6.0457    20.7146   220.9902 </r>
       <r>    -5.8628    16.2893   223.9698 </r>
       <r>    -5.6798    40.8186   231.4361 </r>
       <r>    -5.4969    60.1439   242.4373 </r>
       <r>    -5.3140    62.3679   253.8454 </r>
       <r>    -5.1311    61.2140   265.0423 </r>
       <r>    -4.9482    50.6564   274.3081 </r>
       <r>    -4.7653    50.3989   283.5268 </r>
       <r>    -4.5824    37.4137   290.3703 </r>
       <r>    -4.3994    36.1081   296.9751 </r>
       <r>    -4.2165    46.9628   305.5652 </r>
       <r>    -4.0336    25.7825   310.2813 </r>
       <r>    -3.8507    55.1143   320.3625 </r>
       <r>    -3.6678    61.0811   331.5351 </r>
       <r>    -3.4849    78.3313   345.8631 </r>
       <r>    -3.3020   102.5188   364.6153 </r>
       <r>    -3.1190    75.8662   378.4924 </r>
       <r>    -2.9361    95.7317   396.0031 </r>
       <r>    -2.7532    61.6009   407.2708 </r>
       <r>    -2.5703    51.0867   416.6153 </r>
       <r>    -2.3874    10.1357   418.4693 </r>
       <r>    -2.2045     8.0257   419.9373 </r>
       <r>    -2.0215     0.3426   420.0000 </r>
       <r>    -1.8386     0.0042   420.0008 </r>
       <r>    -1.6557    10.3031   421.8854 </r>
       <r>    -1.4728     0.6470   422.0037 </r>
       <r>    -1.2899     5.4124   422.9937 </r>
       <r>    -1.1070     0.4918   423.0837 </r>
       <r>    -0.9241     5.0091   423.9999 </r>
       <r>    -0.7411     0.5571   424.1018 </r>
       <r>    -0.5582     4.9101   425.0000 </r>
       <r>    -0.3753    12.6079   427.3061 </r>
       <r>    -0.1924   125.6345   450.2866 </r>
       <r>    -0.0095   317.2157   508.3100 </r>
       <r>     0.1734   382.9205   578.3519 </r>
       <r>     0.3563   118.3400   599.9980 </r>
       <r>     0.5393     0.0107   600.0000 </r>
       <r>     0.7222     0.0000   600.0000 </r>
       <r>     0.9051     0.0000   600.0000 </r>
       <r>     1.0880     0.0000   600.0000 </r>
       <r>     1.2709     0.0000   600.0000 </r>
       <r>     1.4538     0.0000   600.0000 </r>
       <r>     1.6367     0.0000   600.0000 </r>
       <r>     1.8197     0.0000   600.0000 </r>
       <r>     2.0026     0.0000   600.0000 </r>
       <r>     2.1855     0.0000   600.0000 </r>
       <r>     2.3684     0.0000   600.0000 </r>
       <r>     2.5513     0.0000   600.0000 </r>
       <r>     2.7342     0.0000   600.0000 </r>
      </set>
     </set>
    </array>
   </total>
  </dos>
 </calculation>
 <structure name="finalpos" >
  <crystal>
   <varray name="basis" >
    <v>      15.53238869       0.00000000       0.00000000 </v>
    <v>      -7.76619434      13.45144318       0.00000000 </v>
    <v>       0.00000000       0.00000000      22.68197060 </v>
   </varray>
   <i name="volume">   4739.01315934 </i>
   <varray name="rec_basis" >
    <v>       0.06438160       0.03717073       0.00000000 </v>
    <v>       0.00000000       0.07434147       0.00000000 </v>
    <v>       0.00000000       0.00000000       0.04408788 </v>
   </varray>
  </crystal>
  <varray name="positions" >
   <v>       0.08333300       0.16666700       0.10483700 </v>
   <v>       0.33333299       0.16666700       0.10483700 </v>
   <v>       0.58333302       0.16666700       0.10483700 </v>
   <v>       0.83333302       0.16666700       0.10483700 </v>
   <v>       0.08333300       0.41666701       0.10483700 </v>
   <v>       0.33333299       0.41666701       0.10483700 </v>
   <v>       0.58333302       0.41666701       0.10483700 </v>
   <v>       0.83333302       0.41666701       0.10483700 </v>
   <v>       0.08333300       0.66666698       0.10483700 </v>
   <v>       0.33333299       0.66666698       0.10483700 </v>
   <v>       0.58333302       0.66666698       0.10483700 </v>
   <v>       0.83333302       0.66666698       0.10483700 </v>
   <v>       0.08333300       0.91666698       0.10483700 </v>
   <v>       0.33333299       0.91666698       0.10483700 </v>
   <v>       0.58333302       0.91666698       0.10483700 </v>
   <v>       0.83333302       0.91666698       0.10483700 </v>
   <v>       0.16639465       0.08364914       0.24358429 </v>
   <v>       0.41562680       0.08313425       0.24376565 </v>
   <v>       0.66676848       0.08521849       0.24293670 </v>
   <v>       0.91955632       0.08554111       0.24305702 </v>
   <v>       0.16533940       0.33286462       0.24277559 </v>
   <v>       0.41188603       0.32361362       0.24275191 </v>
   <v>       0.66781086       0.33274931       0.24325164 </v>
   <v>       0.91661478       0.33295762       0.24230388 </v>
   <v>       0.16422437       0.58145416       0.24295378 </v>
   <v>       0.40899845       0.58045759       0.24469280 </v>
   <v>       0.67152293       0.57907227       0.24495691 </v>
   <v>       0.91817865       0.58235637       0.24325235 </v>
   <v>       0.16577984       0.83228243       0.24393081 </v>
   <v>       0.41025745       0.83716101       0.24272037 </v>
   <v>       0.67023164       0.84219498       0.24094706 </v>
   <v>       0.92594479       0.83666651       0.24622848 </v>
   <v>       0.53607246       0.58120832       0.35938853 </v>
   <v>       0.53482235       0.74166522       0.37374652 </v>
   <v>       0.69261817       0.74259394       0.37182296 </v>
   <v>       0.57497941       0.66530303       0.45932230 </v>
   <v>       0.59652454       0.80307246       0.45190616 </v>
   <v>       0.69086703       0.81760873       0.44522363 </v>
   <v>       0.25000000       0.25000000       0.06989100 </v>
   <v>       0.75000000       0.25000000       0.06989100 </v>
   <v>       0.25000000       0.75000000       0.06989100 </v>
   <v>       0.75000000       0.75000000       0.06989100 </v>
   <v>       0.00000000       0.00000000       0.06989100 </v>
   <v>       0.25000000       0.00000000       0.06989100 </v>
   <v>       0.50000000       0.00000000       0.06989100 </v>
   <v>       0.75000000       0.00000000       0.06989100 </v>
   <v>       0.00000000       0.25000000       0.06989100 </v>
   <v>       0.50000000       0.25000000       0.06989100 </v>
   <v>       0.00000000       0.50000000       0.06989100 </v>
   <v>       0.25000000       0.50000000       0.06989100 </v>
   <v>       0.50000000       0.50000000       0.06989100 </v>
   <v>       0.75000000       0.50000000       0.06989100 </v>
   <v>       0.00000000       0.75000000       0.06989100 </v>
   <v>       0.50000000       0.75000000       0.06989100 </v>
   <v>       0.16666700       0.08333300       0.13978200 </v>
   <v>       0.66666698       0.08333300       0.13978200 </v>
   <v>       0.16666700       0.33333299       0.13978200 </v>
   <v>       0.41666701       0.33333299       0.13978200 </v>
   <v>       0.66666698       0.33333299       0.13978200 </v>
   <v>       0.91666698       0.33333299       0.13978200 </v>
   <v>       0.16666700       0.58333302       0.13978200 </v>
   <v>       0.66666698       0.58333302       0.13978200 </v>
   <v>       0.16666700       0.83333302       0.13978200 </v>
   <v>       0.41666701       0.83333302       0.13978200 </v>
   <v>       0.66666698       0.83333302       0.13978200 </v>
   <v>       0.91666597       0.83333302       0.13978200 </v>
   <v>       0.41666701       0.08333300       0.13978200 </v>
   <v>       0.91666698       0.08333300       0.13978200 </v>
   <v>       0.41666701       0.58333302       0.13978200 </v>
   <v>       0.91666698       0.58333302       0.13978200 </v>
   <v>       0.08116908       0.41509990       0.20590636 </v>
   <v>       0.57820825       0.41273457       0.20902540 </v>
   <v>       0.08929248       0.91973506       0.20766255 </v>
   <v>       0.58041778       0.91250123       0.20816174 </v>
   <v>       0.08419375       0.16893636       0.20604535 </v>
   <v>       0.33284535       0.16563395       0.20660417 </v>
   <v>       0.58349857       0.16636887       0.20711843 </v>
   <v>       0.83296734       0.16645754       0.20702430 </v>
   <v>       0.33513839       0.41376137       0.20904977 </v>
   <v>       0.83404709       0.41437264       0.20618898 </v>
   <v>       0.08453974       0.66510795       0.20634844 </v>
   <v>       0.33513945       0.67187732       0.20906503 </v>
   <v>       0.58806858       0.67692148       0.21385823 </v>
   <v>       0.83503778       0.66531831       0.20944051 </v>
   <v>       0.33265912       0.91722830       0.20671361 </v>
   <v>       0.82897201       0.91535374       0.20905557 </v>
   <v>       0.00659131       0.01304420       0.27967436 </v>
   <v>       0.25323305       0.00201007       0.27935488 </v>
   <v>       0.49838124       0.99989352       0.27790043 </v>
   <v>       0.74779959       0.00126286       0.27851063 </v>
   <v>       0.99987624       0.24959352       0.27769293 </v>
   <v>       0.49645756       0.24542367       0.27894902 </v>
   <v>       0.00040652       0.49835385       0.27790474 </v>
   <v>       0.23727395       0.49398494       0.27910770 </v>
   <v>       0.49072725       0.48106675       0.30317024 </v>
   <v>       0.75457471       0.49041144       0.28025504 </v>
   <v>       0.00922984       0.74562027       0.28097426 </v>
   <v>       0.49599694       0.76486534       0.29921164 </v>
   <v>       0.24964463       0.24706487       0.27863484 </v>
   <v>       0.74882582       0.24764394       0.27816827 </v>
   <v>       0.25057085       0.75283297       0.27931199 </v>
   <v>       0.75962583       0.75929564       0.30131097 </v>
   <v>       0.76709984       0.87895380       0.47110627 </v>
  </varray>
  <varray name="selective"  type="logical" >
   <v type="logical" >  F  F  F </v>
   <v type="logical" >  F  F  F </v>
   <v type="logical" >  F  F  F </v>
   <v type="logical" >  F  F  F </v>
   <v type="logical" >  F  F  F </v>
   <v type="logical" >  F  F  F </v>
   <v type="logical" >  F  F  F </v>
   <v type="logical" >  F  F  F </v>
   <v type="logical" >  F  F  F </v>
   <v type="logical" >  F  F  F </v>
   <v type="logical" >  F  F  F </v>
   <v type="logical" >  F  F  F </v>
   <v type="logical" >  F  F  F </v>
   <v type="logical" >  F  F  F </v>
   <v type="logical" >  F  F  F </v>
   <v type="logical" >  F  F  F </v>
   <v type="logical" >  T  T  T </v>
   <v type="logical" >  T  T  T </v>
   <v type="logical" >  T  T  T </v>
   <v type="logical" >  T  T  T </v>
   <v type="logical" >  T  T  T </v>
   <v type="logical" >  T  T  T </v>
   <v type="logical" >  T  T  T </v>
   <v type="logical" >  T  T  T </v>
   <v type="logical" >  T  T  T </v>
   <v type="logical" >  T  T  T </v>
   <v type="logical" >  T  T  T </v>
   <v type="logical" >  T  T  T </v>
   <v type="logical" >  T  T  T </v>
   <v type="logical" >  T  T  T </v>
   <v type="logical" >  T  T  T </v>
   <v type="logical" >  T  T  T </v>
   <v type="logical" >  T  T  T </v>
   <v type="logical" >  T  T  T </v>
   <v type="logical" >  T  T  T </v>
   <v type="logical" >  T  T  T </v>
   <v type="logical" >  T  T  T </v>
   <v type="logical" >  T  T  T </v>
   <v type="logical" >  F  F  F </v>
   <v type="logical" >  F  F  F </v>
   <v type="logical" >  F  F  F </v>
   <v type="logical" >  F  F  F </v>
   <v type="logical" >  F  F  F </v>
   <v type="logical" >  F  F  F </v>
   <v type="logical" >  F  F  F </v>
   <v type="logical" >  F  F  F </v>
   <v type="logical" >  F  F  F </v>
   <v type="logical" >  F  F  F </v>
   <v type="logical" >  F  F  F </v>
   <v type="logical" >  F  F  F </v>
   <v type="logical" >  F  F  F </v>
   <v type="logical" >  F  F  F </v>
   <v type="logical" >  F  F  F </v>
   <v type="logical" >  F  F  F </v>
   <v type="logical" >  F  F  F </v>
   <v type="logical" >  F  F  F </v>
   <v type="logical" >  F  F  F </v>
   <v type="logical" >  F  F  F </v>
   <v type="logical" >  F  F  F </v>
   <v type="logical" >  F  F  F </v>
   <v type="logical" >  F  F  F </v>
   <v type="logical" >  F  F  F </v>
   <v type="logical" >  F  F  F </v>
   <v type="logical" >  F  F  F </v>
   <v type="logical" >  F  F  F </v>
   <v type="logical" >  F  F  F </v>
   <v type="logical" >  F  F  F </v>
   <v type="logical" >  F  F  F </v>
   <v type="logical" >  F  F  F </v>
   <v type="logical" >  F  F  F </v>
   <v type="logical" >  T  T  T </v>
   <v type="logical" >  T  T  T </v>
   <v type="logical" >  T  T  T </v>
   <v type="logical" >  T  T  T </v>
   <v type="logical" >  T  T  T </v>
   <v type="logical" >  T  T  T </v>
   <v type="logical" >  T  T  T </v>
   <v type="logical" >  T  T  T </v>
   <v type="logical" >  T  T  T </v>
   <v type="logical" >  T  T  T </v>
   <v type="logical" >  T  T  T </v>
   <v type="logical" >  T  T  T </v>
   <v type="logical" >  T  T  T </v>
   <v type="logical" >  T  T  T </v>
   <v type="logical" >  T  T  T </v>
   <v type="logical" >  T  T  T </v>
   <v type="logical" >  T  T  T </v>
   <v type="logical" >  T  T  T </v>
   <v type="logical" >  T  T  T </v>
   <v type="logical" >  T  T  T </v>
   <v type="logical" >  T  T  T </v>
   <v type="logical" >  T  T  T </v>
   <v type="logical" >  T  T  T </v>
   <v type="logical" >  T  T  T </v>
   <v type="logical" >  T  T  T </v>
   <v type="logical" >  T  T  T </v>
   <v type="logical" >  T  T  T </v>
   <v type="logical" >  T  T  T </v>
   <v type="logical" >  T  T  T </v>
   <v type="logical" >  T  T  T </v>
   <v type="logical" >  T  T  T </v>
   <v type="logical" >  T  T  T </v>
   <v type="logical" >  T  T  T </v>
  </varray>
  <nose>
   <v>      -3.00000000       0.00000000       0.00010000       0.00010000 </v>
  </nose>
 </structure>
</modeling>
