unknown system                          
           1
    15.532389    0.000000    0.000000
    -7.766194   13.451443    0.000000
     0.000000    0.000000   22.681971
   Ce   Rh   N    O 
    32     4     2    65
Direct configuration=     1
   0.08333300  0.16666700  0.10483700
   0.33333299  0.16666700  0.10483700
   0.58333302  0.16666700  0.10483700
   0.83333302  0.16666700  0.10483700
   0.08333300  0.41666701  0.10483700
   0.33333299  0.41666701  0.10483700
   0.58333302  0.41666701  0.10483700
   0.83333302  0.41666701  0.10483700
   0.08333300  0.66666698  0.10483700
   0.33333299  0.66666698  0.10483700
   0.58333302  0.66666698  0.10483700
   0.83333302  0.66666698  0.10483700
   0.08333300  0.91666698  0.10483700
   0.33333299  0.91666698  0.10483700
   0.58333302  0.91666698  0.10483700
   0.83333302  0.91666698  0.10483700
   0.16639465  0.08364914  0.24358429
   0.41562680  0.08313425  0.24376565
   0.66676848  0.08521849  0.24293670
   0.91955632  0.08554111  0.24305702
   0.16533940  0.33286462  0.24277559
   0.41188603  0.32361362  0.24275191
   0.66781086  0.33274931  0.24325164
   0.91661478  0.33295762  0.24230388
   0.16422437  0.58145416  0.24295378
   0.40899845  0.58045759  0.24469280
   0.67152293  0.57907227  0.24495691
   0.91817865  0.58235637  0.24325235
   0.16577984  0.83228243  0.24393081
   0.41025745  0.83716101  0.24272037
   0.67023164  0.84219498  0.24094706
   0.92594479  0.83666651  0.24622848
   0.53607246  0.58120832  0.35938853
   0.53482235  0.74166522  0.37374652
   0.69261817  0.74259394  0.37182296
   0.57497941  0.66530303  0.45932230
   0.59652454  0.80307246  0.45190616
   0.69086703  0.81760873  0.44522363
   0.25000000  0.25000000  0.06989100
   0.75000000  0.25000000  0.06989100
   0.25000000  0.75000000  0.06989100
   0.75000000  0.75000000  0.06989100
   0.00000000  0.00000000  0.06989100
   0.25000000  0.00000000  0.06989100
   0.50000000  0.00000000  0.06989100
   0.75000000  0.00000000  0.06989100
   0.00000000  0.25000000  0.06989100
   0.50000000  0.25000000  0.06989100
   0.00000000  0.50000000  0.06989100
   0.25000000  0.50000000  0.06989100
   0.50000000  0.50000000  0.06989100
   0.75000000  0.50000000  0.06989100
   0.00000000  0.75000000  0.06989100
   0.50000000  0.75000000  0.06989100
   0.16666700  0.08333300  0.13978200
   0.66666698  0.08333300  0.13978200
   0.16666700  0.33333299  0.13978200
   0.41666701  0.33333299  0.13978200
   0.66666698  0.33333299  0.13978200
   0.91666698  0.33333299  0.13978200
   0.16666700  0.58333302  0.13978200
   0.66666698  0.58333302  0.13978200
   0.16666700  0.83333302  0.13978200
   0.41666701  0.83333302  0.13978200
   0.66666698  0.83333302  0.13978200
   0.91666597  0.83333302  0.13978200
   0.41666701  0.08333300  0.13978200
   0.91666698  0.08333300  0.13978200
   0.41666701  0.58333302  0.13978200
   0.91666698  0.58333302  0.13978200
   0.08116908  0.41509990  0.20590636
   0.57820825  0.41273457  0.20902540
   0.08929248  0.91973506  0.20766255
   0.58041778  0.91250123  0.20816174
   0.08419375  0.16893636  0.20604535
   0.33284535  0.16563395  0.20660417
   0.58349857  0.16636887  0.20711843
   0.83296734  0.16645754  0.20702430
   0.33513839  0.41376137  0.20904977
   0.83404709  0.41437264  0.20618898
   0.08453974  0.66510795  0.20634844
   0.33513945  0.67187732  0.20906503
   0.58806858  0.67692148  0.21385823
   0.83503778  0.66531831  0.20944051
   0.33265912  0.91722830  0.20671361
   0.82897201  0.91535374  0.20905557
   0.00659131  0.01304420  0.27967436
   0.25323305  0.00201007  0.27935488
   0.49838124  0.99989352  0.27790043
   0.74779959  0.00126286  0.27851063
   0.99987624  0.24959352  0.27769293
   0.49645756  0.24542367  0.27894902
   0.00040652  0.49835385  0.27790474
   0.23727395  0.49398494  0.27910770
   0.49072725  0.48106675  0.30317024
   0.75457471  0.49041144  0.28025504
   0.00922984  0.74562027  0.28097426
   0.49599694  0.76486534  0.29921164
   0.24964463  0.24706487  0.27863484
   0.74882582  0.24764394  0.27816827
   0.25057085  0.75283297  0.27931199
   0.75962583  0.75929564  0.30131097
   0.76709984  0.87895380  0.47110627
